<?xml version="1.0"?>
<VTKFile type="PolyData" version="0.1" byte_order="LittleEndian" header_type="UInt32" compressor="vtkZLibDataCompressor">
  <PolyData>
    <Piece NumberOfPoints="2925" NumberOfVerts="0" NumberOfLines="0" NumberOfStrips="0" NumberOfPolys="5846">
      <PointData Normals="Normals">
        <DataArray type="Float32" Name="Normals" NumberOfComponents="3" format="ascii" RangeMin="0.9999992692768606" RangeMax="1.0000007378060896">
          0.8731520175933838 0.278872013092041 0.3997949957847595 0.9057070016860962 0.33406299352645874 0.26095399260520935
          0.9047120213508606 0.33392900228500366 0.2645519971847534 0.8950729966163635 0.2507390081882477 0.3687460124492645
          0.8793540000915527 0.2735370099544525 0.3897610008716583 0.8072770237922668 0.2128240019083023 0.5504630208015442
          0.8545190095901489 0.24945500493049622 0.45559701323509216 0.8583469986915588 0.22847099602222443 0.4593929946422577
          0.9302390217781067 0.2951050102710724 0.21810099482536316 0.9292590022087097 0.2682430148124695 0.2540149986743927
          0.9343670010566711 0.34468701481819153 0.09027499705553055 0.957485020160675 0.263280987739563 0.11791999638080597
          0.9431530237197876 0.2917979955673218 0.15910999476909637 0.9234340190887451 0.2827950119972229 0.25941699743270874
          0.9230549931526184 0.2791770100593567 0.264629989862442 0.8570460081100464 0.21883900463581085 0.46645599603652954
          0.914372980594635 0.2630540132522583 0.30777499079704285 0.9326009750366211 0.21709300577640533 0.2883149981498718
          0.8414610028266907 0.23569999635219574 0.4861980080604553 0.8035989999771118 0.19835899770259857 0.5611439943313599
          0.9489099979400635 0.19713200628757477 0.24639299511909485 0.9276819825172424 0.27378299832344055 0.2538670003414154
          0.8758739829063416 0.3101849853992462 0.36963599920272827 0.8530700206756592 0.2603349983692169 0.45221298933029175
          0.7704929709434509 0.19791699945926666 0.6059449911117554 0.7781149744987488 0.1768520027399063 0.602711021900177
          0.77047199010849 0.16340500116348267 0.6161749958992004 0.785152018070221 0.202114999294281 0.585394024848938
          0.8097270131111145 0.1811479926109314 0.5581470131874084 0.7551310062408447 0.26305198669433594 0.6004840135574341
          0.9757410287857056 0.16524100303649902 0.1436150074005127 0.9435700178146362 0.3034819960594177 0.1325709968805313
          0.991346001625061 0.12636199593544006 0.03556700050830841 0.9380930066108704 0.2663390040397644 0.2214609980583191
          0.905646026134491 0.31622299551963806 0.28250300884246826 0.9959279894828796 0.07845800369977951 0.04440600052475929
          0.8607469797134399 0.2866629958152771 0.4206410050392151 0.9491170048713684 0.3062790036201477 0.07327699661254883
          0.9586399793624878 0.27322399616241455 0.0797320008277893 0.9479420185089111 0.2564769983291626 0.18874900043010712
          0.9456300139427185 0.2875779867172241 0.15192799270153046 0.9227280020713806 0.31529501080513 0.22172600030899048
          0.9294270277023315 0.30613699555397034 0.20602500438690186 0.9229379892349243 0.2758069932460785 0.268545001745224
          0.9092739820480347 0.3187650144100189 0.2675989866256714 0.8052949905395508 0.18262000381946564 0.5640479922294617
          0.9764379858970642 0.14848999679088593 0.15658999979496002 0.9956300258636475 0.06950899958610535 0.06236099824309349
          0.797730028629303 0.21886000037193298 0.561896026134491 0.8193730115890503 0.1934559941291809 0.5396320223808289
          0.7706949710845947 0.19935500621795654 0.6052160263061523 0.8247110247612 0.2690280079841614 0.4974690079689026
          0.6874290108680725 0.11107899993658066 0.717706024646759 0.7166429758071899 0.158378005027771 0.6792200207710266
          0.7513030171394348 0.15818199515342712 0.640720009803772 0.9928299784660339 0.09360600262880325 0.07433699816465378
          0.9477930068969727 0.2530420124530792 0.19405899941921234 0.9337390065193176 0.31363099813461304 0.17253300547599792
          0.9661350250244141 0.20914199948310852 0.15113799273967743 0.9490399956703186 0.27231600880622864 0.15864300727844238
          0.93060302734375 0.28878799080848694 0.22489799559116364 0.8129919767379761 0.3717400133609772 0.44816699624061584
          0.8705809712409973 0.44005098938941956 0.22009800374507904 0.8518270254135132 0.4202899932861328 0.3126460015773773
          0.816540002822876 0.24796099960803986 0.521323025226593 0.6330729722976685 0.16978299617767334 0.7552430033683777
          0.67637699842453 0.20791800320148468 0.7066010236740112 0.7550950050354004 0.2315170019865036 0.6133769750595093
          0.7100059986114502 0.1165120005607605 0.6944890022277832 0.6223959922790527 0.11738499999046326 0.7738500237464905
          0.7763990163803101 0.23166599869728088 0.5861189961433411 0.7298619747161865 0.14419400691986084 0.6682130098342896
          0.7771869897842407 0.2528960108757019 0.5762150287628174 0.8104069828987122 0.16041499376296997 0.5634779930114746
          0.9061740040779114 0.32771098613739014 0.2673090100288391 0.9450169801712036 0.32512998580932617 0.03511400148272514
          0.935774028301239 0.3066050112247467 0.17412500083446503 0.886014997959137 0.30145400762557983 0.3522830009460449
          0.8135690093040466 0.2776550054550171 0.5108940005302429 0.8594179749488831 0.30127501487731934 0.41307899355888367
          0.9419100284576416 0.3223339915275574 -0.09437000006437302 0.953046977519989 0.2985300123691559 -0.05081300064921379
          0.9580489993095398 0.2693620026111603 -0.09790900349617004 0.9658560156822205 0.2460090070962906 -0.08125100284814835
          0.9574229717254639 0.27633801102638245 0.08353400230407715 0.9451590180397034 0.32396000623703003 -0.04152899980545044
          0.9415889978408813 0.3220899999141693 0.09832599759101868 0.91907799243927 0.31974199414253235 0.23035000264644623
          0.9320870041847229 0.292587012052536 0.21355900168418884 0.9241229891777039 0.2767679989337921 0.26342999935150146
          0.9071419835090637 0.31638699769973755 0.2774749994277954 0.6491469740867615 0.12643100321292877 0.7500820159912109
          0.6408590078353882 0.24406999349594116 0.7278249859809875 0.729237973690033 0.241240993142128 0.6403239965438843
          0.5887719988822937 0.21601499617099762 0.7789000272750854 0.7505090236663818 0.2803870141506195 0.5984309911727905
          0.5064129829406738 0.13352200388908386 0.8518900275230408 0.5945219993591309 0.0411360003054142 0.803026020526886
          0.5751979947090149 0.09068600088357925 0.8129720091819763 0.9234499931335449 0.35232099890708923 0.15201899409294128
          0.9259290099143982 0.32496699690818787 0.19248799979686737 0.8238289952278137 0.3979780077934265 0.4036329984664917
          0.8337069749832153 0.3045859932899475 0.46060898900032043 0.7741720080375671 0.40184199810028076 0.48906099796295166
          0.7334049940109253 0.5050140023231506 0.4550589919090271 0.7577490210533142 0.5176020264625549 0.39737099409103394
          0.8841729760169983 0.4322440028190613 0.1772110015153885 0.8422060012817383 0.4850659966468811 0.23537099361419678
          0.863893985748291 0.4628300070762634 0.19868700206279755 0.8335340023040771 0.42027801275253296 0.3585900068283081
          0.8629180192947388 0.4415050148963928 0.2458599954843521 0.4663510024547577 0.12307599931955338 0.8759959936141968
          0.4454590082168579 0.10601399838924408 0.8890029788017273 0.793848991394043 0.25874799489974976 0.5503209829330444
          0.7731689810752869 0.23606200516223907 0.5886290073394775 0.6680790185928345 0.2047400027513504 0.7153689861297607
          0.6153380274772644 0.08092200011014938 0.7840989828109741 0.4378179907798767 0.0459429994225502 0.8978890180587769
          0.5901709794998169 0.07499299943447113 0.8037869930267334 0.9508990049362183 0.3030889928340912 -0.06267599761486053
          0.9383270144462585 0.31814301013946533 -0.13537900149822235 0.888933002948761 0.3029159903526306 0.3435699939727783
          0.9247859716415405 0.3172610104084015 0.21004000306129456 0.9360299706459045 0.35131800174713135 -0.02057499997317791
          0.8468170166015625 0.27261799573898315 0.4567059874534607 0.7961980104446411 0.24601900577545166 0.5527589917182922
          0.9070550203323364 0.30269598960876465 -0.292620986700058 0.8970829844474792 0.30785301327705383 -0.31696799397468567
          0.9108210206031799 0.2846809923648834 -0.2989349961280823 0.9274489879608154 0.249222993850708 -0.2787950038909912
          0.8916800022125244 0.19080600142478943 -0.41048699617385864 0.9488970041275024 0.23337100446224213 -0.21244299411773682
          0.9118059873580933 0.2872079908847809 -0.2934649884700775 0.9325050115585327 0.35997000336647034 -0.029252000153064728
          0.887253999710083 0.3998660147190094 -0.2299710065126419 0.9278069734573364 0.3589029908180237 0.10180000215768814
          0.9049720168113708 0.3794429898262024 0.1924780011177063 0.6724709868431091 0.23470500111579895 0.7019230127334595
          0.7079470157623291 0.23097500205039978 0.6674299836158752 0.7033069729804993 0.17238900065422058 0.6896679997444153
          0.918159008026123 0.12624399363994598 0.375560998916626 0.4804779887199402 0.5377179980278015 0.6928210258483887
          0.5256369709968567 0.40404000878334045 0.7486370205879211 0.42527100443840027 0.32285499572753906 0.8455229997634888
          0.9846670031547546 0.1075109988451004 0.13737499713897705 0.9237599968910217 0.2600319981575012 0.28115901350975037
          0.37064701318740845 0.07827699929475784 0.9254689812660217 0.30201900005340576 0.07028800249099731 0.9507070183753967
          0.21400399506092072 0.0423399992287159 0.9759150147438049 0.1592720001935959 0.027701999992132187 0.9868460297584534
          0.6052380204200745 0.19383400678634644 0.7720850110054016 0.5207300186157227 0.2023950070142746 0.8293830156326294
          0.4217599928379059 0.14291700720787048 0.8953729867935181 0.35857799649238586 -0.04660499840974808 0.9323359727859497
          0.33277198672294617 -0.04904400184750557 0.9417309761047363 0.9032700061798096 0.4278869926929474 0.03188199922442436
          0.9025560021400452 0.43024200201034546 0.016853999346494675 0.7149009704589844 0.40107399225234985 0.5727620124816895
          0.9154149889945984 0.22169899940490723 0.3359549939632416 0.6728950142860413 0.5202040076255798 0.5259270071983337
          0.5591530203819275 0.6565709710121155 0.5062239766120911 0.8196790218353271 0.5077189803123474 0.26523199677467346
          0.6714239716529846 0.6812940239906311 0.291595995426178 0.5501049757003784 0.7535660266876221 0.35989201068878174
          0.8485180139541626 0.5060960054397583 0.15454499423503876 0.8732060194015503 0.4808570146560669 0.07929699867963791
          0.8793299794197083 0.4448249936103821 0.1700270026922226 0.8397459983825684 0.526718020439148 0.13188600540161133
          0.8708000183105469 0.4611009955406189 0.17056700587272644 0.18394500017166138 -0.005557999946177006 0.9829210042953491
          0.2481680065393448 0.0647680014371872 0.9665489792823792 0.4847699999809265 0.10053800046443939 0.8688439726829529
          0.6019799709320068 0.1474210023880005 0.7847840189933777 0.19116200506687164 0.0864190012216568 0.9777470231056213
          0.32688701152801514 0.07182499766349792 0.942330002784729 0.2501699924468994 0.019946999847888947 0.9679960012435913
          0.8628609776496887 0.27717599272727966 0.42266300320625305 0.8571540117263794 0.2783620059490204 0.4333620071411133
          0.927295982837677 0.3127009868621826 0.20576800405979156 0.7846699953079224 0.24645400047302246 0.5688179731369019
          0.6471120119094849 0.1875550001859665 0.7389649748802185 0.5001869797706604 -0.010177000425755978 0.8658580183982849
          0.26278799772262573 -0.05737699940800667 0.9631459712982178 0.3281089961528778 0.010976999998092651 0.9445760250091553
          0.41190698742866516 -0.04248199984431267 0.9102349877357483 0.9066569805145264 0.32565799355506897 -0.26817798614501953
          0.7914800047874451 0.2950440049171448 -0.5352659821510315 0.8840789794921875 0.29966700077056885 0.3586150109767914
          0.9263160228729248 0.30819201469421387 0.2166929990053177 0.9350429773330688 0.29443299770355225 0.19749300181865692
          0.9243000149726868 0.35499799251556396 0.14016099274158478 0.9044269919395447 0.30622899532318115 -0.2970449924468994
          0.8941450119018555 0.31731200218200684 -0.3159399926662445 0.9455270171165466 0.3253780007362366 0.010348999872803688
          0.8105930089950562 0.26695701479911804 0.5212230086326599 0.9161750078201294 0.3049980103969574 0.25999900698661804
          0.7851589918136597 0.27515700459480286 -0.5548099875450134 0.784076988697052 0.26319700479507446 -0.5620949864387512
          0.817782998085022 0.23901599645614624 -0.5235480070114136 0.7101259827613831 0.15074099600315094 -0.6877480149269104
          0.8675320148468018 0.18015499413013458 -0.4636079967021942 0.8960070013999939 0.24932099878787994 -0.3674370050430298
          0.8730239868164062 0.33703500032424927 -0.3524729907512665 0.8642439842224121 0.455828994512558 -0.21284300088882446
          0.8366450071334839 0.47161000967025757 -0.27858400344848633 0.779312014579773 0.45418599247932434 -0.43172699213027954
          0.7789710164070129 0.49856698513031006 -0.38030898571014404 0.905019998550415 0.12834499776363373 0.4055440127849579
          0.46239298582077026 0.2416680008172989 0.8531060218811035 0.97434002161026 0.06544899940490723 0.21535399556159973
          0.6422529816627502 0.5143529772758484 0.5682889819145203 0.38757601380348206 0.4441229999065399 0.8077989816665649
          0.5707299709320068 0.4774470031261444 0.6680650115013123 0.2842699885368347 0.3201189935207367 0.9037219882011414
          0.15644299983978271 0.37389498949050903 0.9141809940338135 0.288877010345459 0.5036100149154663 0.8142030239105225
          0.22172600030899048 -0.013340000063180923 0.9750180244445801 0.1955769956111908 0.04230000078678131 0.9797760248184204
          0.31833499670028687 -0.016638999804854393 0.9478319883346558 0.17055299878120422 -0.10083399713039398 0.9801759719848633
          0.3780589997768402 0.09226500242948532 0.921172022819519 0.2537209987640381 0.062164999544620514 0.9652780294418335
          0.5125929713249207 0.1110600009560585 0.8514189720153809 0.5042129755020142 0.1168849989771843 0.855633020401001
          0.038373999297618866 -0.20486700534820557 0.9780369997024536 0.021201999858021736 -0.18299299478530884 0.982886016368866
          -0.0017219999572262168 -0.15332399308681488 0.9881740212440491 0.8500980138778687 0.48347100615501404 -0.20878100395202637
          0.8167170286178589 0.5324940085411072 -0.2223149985074997 0.8090710043907166 0.5719649791717529 -0.1351339966058731
          0.8509399890899658 0.49249300360679626 -0.18262700736522675 0.45802098512649536 0.6434590220451355 0.613332986831665
          0.3434790074825287 0.7843300104141235 0.5165740251541138 0.42188000679016113 0.784824013710022 0.4539470076560974
          0.7509549856185913 0.6331290006637573 0.18765400350093842 0.6489599943161011 0.7332360148429871 0.20302000641822815
          0.5544430017471313 0.8012589812278748 0.22489400207996368 0.5348169803619385 0.8287559747695923 0.16472800076007843
          0.4136030077934265 0.8316969871520996 0.37042298913002014 0.7955939769744873 0.6038529872894287 0.04890799894928932
          0.8234019875526428 0.5669190287590027 0.024755999445915222 0.8116509914398193 0.5825819969177246 0.042660001665353775
          0.6382880210876465 0.7669659852981567 0.06596200168132782 -0.02371099963784218 -0.07015799731016159 0.9972540140151978
          0.21814300119876862 0.00014699999883305281 0.9759169816970825 0.17791500687599182 0.0070489998906850815 0.984021008014679
          0.07805400341749191 0.04137999936938286 0.9960899949073792 0.3350850045681 0.047892000526189804 0.9409700036048889
          0.5324119925498962 0.12852199375629425 0.8366720080375671 0.21312199532985687 0.03537999838590622 0.9763849973678589
          -0.005532999988645315 0.03250100091099739 0.999455988407135 -0.04422900080680847 0.051330000162124634 0.9977020025253296
          0.3189670145511627 0.05054200068116188 0.946416974067688 0.8314030170440674 0.26910099387168884 0.486162006855011
          0.8354300260543823 0.28908899426460266 0.4674240052700043 0.8667790293693542 0.29901498556137085 0.3991039991378784
          0.7340549826622009 0.23383599519729614 0.637561023235321 0.6319519877433777 0.2013999968767166 0.7483810186386108
          0.5147420167922974 0.1279810070991516 0.8477389812469482 0.5799270272254944 0.15301500260829926 0.8001689910888672
          0.27529698610305786 -0.12078999727964401 0.9537410140037537 0.1838890016078949 -0.019850000739097595 0.9827470183372498
          0.09762900322675705 -0.10998500138521194 0.989126980304718 0.8167189955711365 0.3030630052089691 -0.49104198813438416
          0.6614009737968445 0.28962498903274536 -0.6918569803237915 0.5655459761619568 0.24561500549316406 -0.787293016910553
          0.6437150239944458 0.209538996219635 -0.736020028591156 0.9267929792404175 0.2909420132637024 0.2375040054321289
          0.8907560110092163 0.28267401456832886 0.35587799549102783 0.9457079768180847 0.28708600997924805 0.15237200260162354
          0.7611629962921143 0.2889289855957031 -0.5806469917297363 0.7791079878807068 0.28779301047325134 -0.5569260120391846
          0.9055619835853577 0.2931089997291565 -0.30666598677635193 0.951213002204895 0.2799220085144043 -0.12976400554180145
          0.9597730040550232 0.2807289958000183 0.005253999959677458 0.7523750066757202 0.22730900347232819 -0.6182730197906494
          0.6649479866027832 0.13314999639987946 -0.7349249720573425 0.5485320091247559 0.11496800184249878 -0.8281880021095276
          0.650160014629364 0.06161699816584587 -0.7572939991950989 0.8106909990310669 0.1435369998216629 -0.5676059722900391
          0.820572018623352 0.2960189878940582 -0.4889119863510132 0.8132039904594421 0.4819430112838745 -0.3262369930744171
          0.7070379853248596 0.549161970615387 -0.4455539882183075 0.6438419818878174 0.5701839923858643 -0.5102519989013672
          0.6732810139656067 0.4102349877357483 -0.6151419878005981 0.6210560202598572 0.5605850219726562 -0.5477539896965027
          0.26487600803375244 0.218640998005867 0.9391679763793945 0.23401199281215668 0.3003639876842499 0.9246730208396912
          0.3953210115432739 0.5653089880943298 0.7239810228347778 0.2945919930934906 0.5801900029182434 0.7593389749526978
          -0.013028999790549278 0.34094399213790894 0.9399939775466919 -0.07195600122213364 0.3575870096683502 0.931102991104126
          0.17973800003528595 0.428072988986969 0.8856899738311768 0.34076300263404846 0.6025130152702332 0.721705973148346
          0.2296839952468872 0.6540330052375793 0.7207540273666382 0.03371400013566017 -0.0638979971408844 0.9973869919776917
          -0.02483700029551983 -0.18493300676345825 0.982437014579773 0.24295200407505035 -0.04440600052475929 0.9690210223197937
          -0.09878599643707275 -0.27427101135253906 0.9565650224685669 0.11712300032377243 -0.11590799689292908 0.986329972743988
          0.35273298621177673 0.0768899992108345 0.9325600266456604 0.3460260033607483 0.09367299824953079 0.9335370063781738
          0.5732330083847046 0.11672300100326538 0.8110359907150269 0.9782350063323975 0.013566999696195126 0.20705699920654297
          0.8914420008659363 0.0461059994995594 0.45078301429748535 0.8930969834327698 0.02686000056564808 0.44906100630760193
          0.3234489858150482 0.1164959967136383 0.9390469789505005 -0.18917100131511688 -0.3120479881763458 0.9310430288314819
          -0.1209229975938797 -0.27185899019241333 0.9547100067138672 -0.18592900037765503 -0.18480299413204193 0.9650279879570007
          -0.2455040067434311 -0.2715680003166199 0.9305800199508667 -0.26424598693847656 -0.22868700325489044 0.9369509816169739
          -0.19988100230693817 -0.2864519953727722 0.9370129704475403 0.7765780091285706 0.5374709963798523 -0.32871299982070923
          0.9298329949378967 0.31760498881340027 -0.18584400415420532 0.8254079818725586 0.5085260272026062 -0.24515900015830994
          0.6419529914855957 0.6492270231246948 -0.40792301297187805 0.6846399903297424 0.6419389843940735 -0.345227986574173
          0.747622013092041 0.6562600135803223 -0.10190500319004059 0.27164098620414734 0.7332000136375427 0.6234009861946106
          0.24960899353027344 0.8310859799385071 0.49698200821876526 0.23660199344158173 0.8931679725646973 0.38245299458503723
          0.3778110146522522 0.8666620254516602 0.32581499218940735 0.5687739849090576 0.810259997844696 0.14133000373840332
          0.8530830144882202 0.5175759792327881 0.06606300175189972 0.9139840006828308 0.40052101016044617 0.06493700295686722
          0.4454900026321411 0.8731080293655396 0.19804500043392181 0.6952670216560364 0.7170510292053223 -0.04941299930214882
          0.5145760178565979 0.8574050068855286 0.008289000019431114 0.47932198643684387 0.8740190267562866 0.07963000237941742
          0.6333829760551453 0.7641329765319824 0.12217500060796738 -0.1967419981956482 -0.0437610000371933 0.9794780015945435
          -0.3183709979057312 -0.13031600415706635 0.9389659762382507 -0.41233399510383606 -0.11475799977779388 0.9037759900093079
          -0.35308900475502014 -0.18429400026798248 0.9172589778900146 0.4950709939002991 0.08233200013637543 0.8649430274963379
          0.4490639865398407 0.06558399647474289 0.8910890221595764 0.16454100608825684 -0.0355679988861084 0.9857289791107178
          0.26541000604629517 -0.006192000117152929 0.9641159772872925 0.07753299921751022 -0.015197999775409698 0.9968739748001099
          -0.12924499809741974 -0.044879000633955 0.9905970096588135 -0.27568501234054565 -0.037262000143527985 0.9605259895324707
          0.8945350050926208 0.31869998574256897 0.31342899799346924 0.8878830075263977 0.28684499859809875 0.359699010848999
          0.7776359915733337 0.24427199363708496 0.579321026802063 0.9113929867744446 0.322160005569458 0.2560789883136749
          0.6746940016746521 0.2014939934015274 0.7100620269775391 0.6625289916992188 0.16387200355529785 0.7308909893035889
          0.3520120084285736 0.051284998655319214 0.9345890283584595 0.3130579888820648 0.0506570003926754 0.9483820199966431
          0.5840749740600586 0.11339099705219269 0.8037400245666504 0.401870995759964 0.11130200326442719 0.9089069962501526
          0.3671959936618805 0.10522300004959106 0.9241729974746704 0.5969799757003784 0.27905699610710144 -0.7521589994430542
          0.5408790111541748 0.19707299768924713 -0.8176869750022888 0.4025909900665283 0.18876099586486816 -0.8957059979438782
          0.4774110019207001 0.21218399703502655 -0.8526759743690491 0.675491988658905 0.16533799469470978 -0.7185919880867004
          0.9394879937171936 0.2892099916934967 0.18362799286842346 0.6662709712982178 0.3001750111579895 -0.6826260089874268
          0.9266350269317627 0.30516698956489563 -0.21959100663661957 0.8258619904518127 0.30597400665283203 -0.4736360013484955
          0.9470120072364807 0.32113000750541687 0.006612000055611134 0.9494699835777283 0.30762800574302673 -0.062224000692367554
          0.8732630014419556 0.07767199724912643 -0.4810180068016052 0.9715989828109741 0.04507699981331825 -0.2323009967803955
          0.5213299989700317 0.04226300120353699 -0.8523079752922058 0.5119569897651672 0.12248600274324417 -0.8502339720726013
          0.48768699169158936 -0.02116600051522255 -0.8727620244026184 0.5697870254516602 -0.03915699943900108 -0.8208590149879456
          0.7242720127105713 0.04314599931240082 -0.6881639957427979 0.7450039982795715 0.000058000001445179805 -0.6670590043067932
          0.7533940076828003 0.0904569998383522 -0.6513180136680603 0.7291049957275391 0.270889014005661 -0.6285110116004944
          0.6420130133628845 0.6199520230293274 -0.45108699798583984 0.906611979007721 0.356548011302948 -0.22567300498485565
          0.5425260066986084 0.6097649931907654 -0.5777999758720398 0.5826690196990967 0.5956439971923828 -0.5529059767723083
          0.5876039862632751 0.13394099473953247 -0.7979859709739685 0.6071000099182129 0.4548560082912445 -0.6515640020370483
          0.6013320088386536 0.5518220067024231 -0.5778340101242065 0.40756601095199585 0.1359190046787262 0.903003990650177
          -0.1018579974770546 0.2844110131263733 0.9532759785652161 -0.007879000157117844 0.2130810022354126 0.9770029783248901
          -0.24129000306129456 0.3217589855194092 0.9155600070953369 -0.23497599363327026 0.3067449927330017 0.9223300218582153
          -0.023451000452041626 0.41916799545288086 0.9076060056686401 -0.33510398864746094 0.3817709982395172 0.8613690137863159
          0.15376900136470795 0.5099660158157349 0.8463389873504639 0.012086000293493271 0.7297800183296204 0.6835749745368958
          -0.002240000059828162 0.5869380235671997 0.8096290230751038 0.07856100052595139 0.8145440220832825 0.5747569799423218
          -0.24502700567245483 -0.3898639976978302 0.8876749873161316 0.10263799875974655 0.0077320002019405365 0.9946889877319336
          -0.24504199624061584 -0.37655800580978394 0.8933969736099243 -0.23603500425815582 -0.4079749882221222 0.8819540143013
          -0.10533799976110458 -0.17141200602054596 0.9795519709587097 -0.23658500611782074 -0.30467700958251953 0.9226049780845642
          0.08694399893283844 -0.07687400281429291 0.9932429790496826 0.06916400045156479 0.0070859999395906925 0.9975799918174744
          0.12853200733661652 0.06316100060939789 0.989691972732544 0.3019779920578003 0.08790399879217148 0.9492539763450623
          0.896668016910553 0.068743996322155 0.43733298778533936 -0.3266279995441437 -0.31894001364707947 0.8897140026092529
          -0.40408098697662354 -0.26472800970077515 0.875577986240387 -0.39431101083755493 -0.3169960081577301 0.8625730276107788
          -0.2977460026741028 -0.40320900082588196 0.8653150200843811 0.9408749938011169 0.27806800603866577 -0.19347600638866425
          0.6794059872627258 0.5826780200004578 -0.44597500562667847 0.5770329833030701 0.6519950032234192 -0.4918679893016815
          0.695294976234436 0.5583840012550354 -0.4525179862976074 0.77605801820755 0.5484769940376282 -0.3112980127334595
          0.6311889886856079 0.7570009827613831 -0.16896900534629822 0.6875240206718445 0.703544020652771 -0.17982499301433563
          0.5641710162162781 0.7978590130805969 0.21244600415229797 0.2753170132637024 0.9484040141105652 0.15725700557231903
          0.24740399420261383 0.9492939710617065 0.19399100542068481 0.32443100214004517 0.90693199634552 0.26873600482940674
          0.06146400049328804 0.8608099818229675 0.505200982093811 -0.03562700003385544 0.8804799914360046 0.4727419912815094
          0.16498799622058868 0.8966969847679138 0.4107469916343689 0.8630679845809937 0.49694499373435974 0.09033100306987762
          0.5208219885826111 0.8498690128326416 -0.08042100071907043 0.44317299127578735 0.8960040211677551 0.027813000604510307
          0.35384601354599 0.9296140074729919 -0.10300499945878983 0.43285998702049255 0.9014610052108765 0.00005700000110664405
          0.4359090030193329 0.8901699781417847 0.13258999586105347 -0.5384050011634827 -0.13798199594020844 0.8313130140304565
          -0.48675400018692017 -0.17437699437141418 0.8559569716453552 -0.6474050283432007 -0.19050300121307373 0.7379530072212219
          -0.5691909790039062 -0.25177401304244995 0.7827079892158508 0.07786600291728973 -0.06656999886035919 0.9947389960289001
          -0.10178299993276596 -0.08843299746513367 0.9908679723739624 -0.02121799997985363 -0.06501899659633636 0.9976580142974854
          0.16292299330234528 0.018995000049471855 0.9864559769630432 0.017702000215649605 -0.10876499861478806 0.993910014629364
          -0.3212279975414276 -0.12174800038337708 0.9391430020332336 0.9311670064926147 0.3117330074310303 0.18907999992370605
          0.8721669912338257 0.2723110020160675 0.4064129889011383 0.9080439805984497 0.2936539947986603 0.29870399832725525
          0.8205680251121521 0.25572699308395386 0.5111470222473145 0.6995999813079834 0.22609099745750427 0.6778219938278198
          0.7664679884910583 0.23182600736618042 0.598986029624939 0.9436699748039246 0.30951300263404846 0.1170009970664978
          0.9096140265464783 0.29996201395988464 0.2874450087547302 0.5891910195350647 0.1953289955854416 0.7840290069580078
          0.6533709764480591 0.2268339991569519 0.7222549915313721 0.25169798731803894 0.05117899924516678 0.9664520025253296
          0.05978100001811981 -0.03878000006079674 0.9974579811096191 0.35240501165390015 0.04613000154495239 0.9347100257873535
          0.2063719928264618 0.05151800066232681 0.9771159887313843 0.3968850076198578 0.09174399822950363 0.9132720232009888
          0.2479030042886734 0.03474399819970131 0.9681620001792908 0.513001024723053 0.2547149956226349 -0.8197259902954102
          0.4275200068950653 0.15431399643421173 -0.8907380104064941 0.5189949870109558 0.1856359988451004 -0.8343759775161743
          0.5440750122070312 0.19662800431251526 -0.8156710267066956 0.7983540296554565 0.09744299948215485 -0.5942519903182983
          0.41929399967193604 0.14351700246334076 -0.896435022354126 0.38555699586868286 0.16113899648189545 -0.9085040092468262
          0.4055109918117523 0.2152950018644333 -0.8883739709854126 0.3242020010948181 0.16163599491119385 -0.9320769906044006
          0.46230998635292053 0.11908099800348282 -0.8786860108375549 0.878167986869812 0.11214599758386612 -0.46502000093460083
          0.6860139966011047 0.28449198603630066 -0.6696630120277405 0.49854299426078796 0.2529729902744293 -0.8291320204734802