<?xml version="1.0"?>
<VTKFile type="PolyData" version="0.1" byte_order="LittleEndian" header_type="UInt32" compressor="vtkZLibDataCompressor">
  <PolyData>
    <Piece NumberOfPoints="4230" NumberOfVerts="0" NumberOfLines="0" NumberOfStrips="0" NumberOfPolys="8456">
      <PointData Normals="Normals">
        <DataArray type="Float32" Name="Normals" NumberOfComponents="3" format="ascii" RangeMin="0.9999992544428934" RangeMax="1.0000008204305622">
          0.2070239931344986 -0.9272770285606384 0.31192800402641296 0.4058910012245178 -0.8090479969978333 0.42508000135421753
          0.2586260139942169 -0.8391249775886536 0.478520005941391 0.13725200295448303 -0.8542550206184387 0.5014089941978455
          0.47604799270629883 -0.8362389802932739 0.2721799910068512 0.13714499771595 -0.9846559762954712 0.10791099816560745
          0.29475998878479004 -0.9402499794960022 0.17042799293994904 0.10277599841356277 -0.9327989816665649 0.34543299674987793
          -0.029823999851942062 -0.9813479781150818 0.18990999460220337 0.031293001025915146 -0.9940710067749023 0.10413400083780289
          0.35535699129104614 -0.7668309807777405 0.5345020294189453 0.6692129969596863 -0.6486219763755798 0.3625499904155731
          0.551908016204834 -0.7107729911804199 0.4361189901828766 0.4513159990310669 -0.7302420139312744 0.5128939747810364
          0.2562189996242523 -0.7171459794044495 0.6481149792671204 -0.050811998546123505 -0.7833340167999268 0.6195200085639954
          -0.10642900317907333 -0.9278470277786255 0.35745200514793396 0.4479239881038666 -0.888189971446991 0.10238800197839737
          0.6100519895553589 -0.7826470136642456 0.12369000166654587 0.2914719879627228 -0.9565590023994446 0.00622300012037158
          0.1697790026664734 -0.9850500226020813 -0.029191000387072563 -0.01118599995970726 -0.9957979917526245 -0.09089499711990356
          -0.17433099448680878 -0.9729670286178589 0.15147100389003754 -0.18282300233840942 -0.9814339876174927 -0.0579879991710186
          0.43624600768089294 -0.6595240235328674 0.612142026424408 0.8287429809570312 -0.42417600750923157 0.36504799127578735
          0.7349969744682312 -0.5362169742584229 0.41503098607063293 0.7330750226974487 -0.5382559895515442 0.41578900814056396
          0.7774839997291565 -0.6015009880065918 0.18361599743366241 0.608135998249054 -0.5765349864959717 0.5456900000572205
          0.008496999740600586 -0.7356590032577515 0.6772990226745605 0.46752798557281494 -0.6085940003395081 0.6411169767379761
          0.27439001202583313 -0.6945909857749939 0.6650220155715942 0.06951399892568588 -0.6641780138015747 0.7443360090255737
          0.21524900197982788 -0.6106870174407959 0.7620559930801392 0.18601900339126587 -0.6873540282249451 0.70209801197052
          -0.15050800144672394 -0.7675700187683105 0.6230440139770508 -0.23424099385738373 -0.8394799828529358 0.49031099677085876
          -0.2598159909248352 -0.7836220264434814 0.5642979741096497 -0.30725300312042236 -0.917156994342804 0.25380900502204895
          -0.13853499293327332 -0.9723320007324219 0.1880899965763092 0.4610840082168579 -0.887220025062561 -0.015556000173091888
          0.7118840217590332 -0.7022799849510193 0.0049669998697936535 0.5641720294952393 -0.8234750032424927 -0.05998799949884415
          0.324849009513855 -0.9312880039215088 -0.16484899818897247 0.15047800540924072 -0.9713429808616638 -0.1839819997549057
          -0.061531998217105865 -0.9643139839172363 -0.25751399993896484 -0.28265899419784546 -0.956462025642395 0.07268799841403961
          -0.2437240034341812 -0.9488059878349304 -0.2009119987487793 -0.37259700894355774 -0.9238929748535156 -0.0871409997344017
          0.512611985206604 -0.5192109942436218 0.6838489770889282 0.7429670095443726 -0.48333901166915894 0.46301499009132385
          0.9056969881057739 -0.27407199144363403 0.32341599464416504 0.9499359726905823 -0.15592700242996216 0.2707560062408447
          0.9246690273284912 -0.2660360038280487 0.27241700887680054 0.7613739967346191 -0.47032099962234497 0.44621598720550537
          0.8527820110321045 -0.5174480080604553 0.07078500092029572 0.7173460125923157 -0.4173260033130646 0.5579010248184204
          0.598065972328186 -0.44186899065971375 0.6686319708824158 -0.0986500009894371 -0.7521020174026489 0.6516219973564148
          0.3701309859752655 -0.5937029719352722 0.714506983757019 0.4904710054397583 -0.44967299699783325 0.7464799880981445
          0.14437299966812134 -0.5841240286827087 0.7987220287322998 -0.05670600011944771 -0.6634799838066101 0.746042013168335
          0.006787999998778105 -0.5371599793434143 0.8434529900550842 0.069023996591568 -0.49656999111175537 0.8652480244636536
          0.3942970037460327 -0.4363119900226593 0.8088020086288452 0.2427780032157898 -0.44617700576782227 0.8613860011100769
          -0.396140992641449 -0.8434349894523621 0.36289098858833313 -0.5087820291519165 -0.787434995174408 0.3479749858379364
          -0.20837999880313873 -0.7260149717330933 0.6553469896316528 -0.4446539878845215 -0.7268720269203186 0.523393988609314
          -0.5161669850349426 -0.848239004611969 0.11858300119638443 0.45414999127388 -0.8560649752616882 -0.24677899479866028
          0.6056380271911621 -0.7821729779243469 -0.14631399512290955 0.6562179923057556 -0.7356380224227905 -0.16797299683094025
          0.8281739950180054 -0.5597530007362366 0.02837499976158142 0.8287019729614258 -0.5590649843215942 -0.026460999622941017
          0.20493200421333313 -0.9030230045318604 -0.3775610029697418 -0.07708200067281723 -0.9348599910736084 -0.34654700756073
          -0.36906999349594116 -0.9084179997444153 -0.1963759958744049 -0.3139970004558563 -0.9059529900550842 -0.2839980125427246
          -0.4909389913082123 -0.8611900210380554 -0.13164600729942322 0.560670018196106 -0.37056198716163635 0.7404950261116028
          0.7990639805793762 -0.3120020031929016 0.5139570236206055 0.8415359854698181 -0.31835898756980896 0.4364219903945923
          0.9220539927482605 -0.3271459937095642 0.20686300098896027 0.9632189869880676 -0.22911399602890015 0.14041100442409515
          0.9812420010566711 -0.06626799702644348 0.18103499710559845 0.9198079705238342 -0.3352000117301941 0.20394599437713623
          0.9175050258636475 -0.07558699697256088 0.3904759883880615 0.9097430109977722 -0.27796199917793274 0.3083910048007965
          0.9539769887924194 -0.2956160008907318 0.05038699880242348 0.9391310214996338 -0.3211979866027832 -0.12192399799823761
          0.7071449756622314 -0.33116599917411804 0.6247190237045288 0.4847770035266876 -0.2831270098686218 0.8275449872016907
          0.34965598583221436 -0.3445810079574585 0.8712090253829956 -0.037331998348236084 -0.5371990203857422 0.8426290154457092
          -0.19895799458026886 -0.6349359750747681 0.7465059757232666 0.07296299934387207 -0.39942899346351624 0.913856029510498
          0.18143799901008606 -0.3829270005226135 0.9057859778404236 -0.6797680258750916 -0.6816359758377075 0.2707180082798004
          -0.6269000172615051 -0.7596250176429749 0.17310699820518494 -0.6226580142974854 -0.6866090297698975 0.3753199875354767
          -0.6246439814567566 -0.6770529747009277 0.3891249895095825 -0.6295430064201355 -0.6987940073013306 0.3396500051021576
          -0.5813720226287842 -0.6141520142555237 0.533689022064209 -0.6011469960212708 -0.5628139972686768 0.5673289895057678
          -0.45649001002311707 -0.5939369797706604 0.6624619960784912 -0.59197998046875 -0.802698016166687 0.07236000150442123
          0.5282620191574097 -0.7862129807472229 -0.32063600420951843 0.3934429883956909 -0.812824010848999 -0.4295560121536255
          0.7987840175628662 -0.5765010118484497 -0.17201900482177734 0.5941330194473267 -0.7130529880523682 -0.37223899364471436
          0.9110919833183289 -0.4095819890499115 0.0464010015130043 0.9340919852256775 -0.35176798701286316 -0.061083998531103134
          0.1812320053577423 -0.8666160106658936 -0.4648990035057068 -0.11382800340652466 -0.9067010283470154 -0.4061239957809448
          -0.34572601318359375 -0.8194019794464111 -0.4572240114212036 -0.4194900095462799 -0.8335850238800049 -0.35939499735832214
          -0.41431400179862976 -0.8237239718437195 -0.3870689868927002 -0.5127739906311035 -0.7827780246734619 -0.35259100794792175
          -0.6156499981880188 -0.7879670262336731 0.009142999537289143 -0.6418579816818237 -0.7582489848136902 -0.1143530011177063
          0.7486389875411987 -0.2278759926557541 0.6225849986076355 0.7787879705429077 -0.2577410042285919 0.5718899965286255
          0.7726179957389832 -0.2796289920806885 0.5699719786643982 0.8456850051879883 -0.3640719950199127 0.3902150094509125
          0.8494179844856262 -0.5216420292854309 0.07987300306558609 0.9004470109939575 -0.4185679852962494 -0.11830999702215195
          0.8619449734687805 -0.4848189949989319 0.1483280062675476 0.8137689828872681 -0.32788801193237305 0.47986501455307007
          0.7183129787445068 -0.3814390003681183 0.5818340182304382 0.7397570013999939 -0.4386509954929352 0.5102400183677673
          0.8748070001602173 -0.4295389950275421 0.22407500445842743 0.912572979927063 -0.4070500135421753 0.03898699954152107
          0.3609359860420227 -0.2766219973564148 0.8906210064888 0.42649298906326294 -0.1913129985332489 0.8840270042419434
          0.6916850209236145 -0.13332599401474 0.7097859978675842 0.5126349925994873 -0.11217699944972992 0.8512470126152039
          0.17538100481033325 -0.35044899582862854 0.9200149774551392 0.2243880033493042 -0.312936007976532 0.9228870272636414
          -0.031341999769210815 -0.508499026298523 0.8604919910430908 -0.10922099649906158 -0.5097339749336243 0.8533710241317749
          -0.26708799600601196 -0.5597829818725586 0.7844150066375732 0.14786800742149353 -0.3331240117549896 0.9312160015106201
          0.12906399369239807 -0.36105599999427795 0.9235699772834778 0.0075090001337230206 -0.36634698510169983 0.9304479956626892
          -0.7774479985237122 -0.5990480184555054 0.19161400198936462 -0.7979249954223633 -0.5363680124282837 0.27500200271606445
          -0.797918975353241 -0.4705739915370941 0.3766759932041168 -0.7654119729995728 -0.5557940006256104 0.3244040012359619
          -0.6762760281562805 -0.7239770293235779 0.13604199886322021 -0.7704579830169678 -0.5347070097923279 0.347106009721756
          -0.7383130192756653 -0.5040150284767151 0.4481779932975769 -0.6938499808311462 -0.4983780086040497 0.5198000073432922
          -0.8375729918479919 -0.3827120065689087 0.38987699151039124 -0.7339059710502625 -0.453574001789093 0.505620002746582
          -0.46020200848579407 -0.5707409977912903 0.6800510287284851 0.5279800295829773 -0.7333239912986755 -0.4283370077610016
          0.29113298654556274 -0.773231029510498 -0.5633429884910583 0.3136860132217407 -0.8044589757919312 -0.5044270157814026
          0.3963170051574707 -0.7284259796142578 -0.5588629841804504 0.832414984703064 -0.5325779914855957 -0.1531209945678711
          0.8922140002250671 -0.43711501359939575 0.11351200193166733 0.5898569822311401 -0.6835950016975403 -0.42984500527381897
          0.7341859936714172 -0.5965350270271301 -0.3242169916629791 0.8847749829292297 -0.44883400201797485 0.12538599967956543
          -0.07640799880027771 -0.8428159952163696 -0.5327500104904175 0.22334100306034088 -0.7826420068740845 -0.5810250043869019
          -0.39848199486732483 -0.8061450123786926 -0.43742701411247253 -0.3255760073661804 -0.843520998954773 -0.42716699838638306
          -0.315744012594223 -0.8815540075302124 -0.35095301270484924 -0.39079099893569946 -0.7239660024642944 -0.5684679746627808
          -0.4698140025138855 -0.6708049774169922 -0.5738430023193359 -0.6412460207939148 -0.7207959890365601 -0.26316800713539124
          -0.5662320256233215 -0.6959879994392395 -0.441567987203598 -0.7149019837379456 -0.6939740180969238 0.08552700281143188
          -0.7915539741516113 -0.6056560277938843 -0.08138400316238403 -0.7602159976959229 -0.6492059826850891 0.024555999785661697
          0.8007389903068542 -0.06458000093698502 0.5955219864845276 0.7942439913749695 -0.2312069982290268 0.5618889927864075
          0.794642984867096 -0.27404800057411194 0.5417019724845886 0.8263170123100281 -0.52947598695755 0.19197699427604675
          0.8390769958496094 -0.2850619852542877 0.4633449912071228 0.6913729906082153 -0.7155200242996216 -0.10016900300979614
          0.6916630268096924 -0.6983349919319153 0.18420399725437164 0.6847559809684753 -0.6915180087089539 -0.2300270050764084
          0.6214269995689392 -0.5162389874458313 0.5893430113792419 0.6374109983444214 -0.5365920066833496 0.5529710054397583
          0.8308860063552856 -0.4402410089969635 0.3403190076351166 0.8628479838371277 -0.48041900992393494 0.15713700652122498
          0.870061993598938 -0.48976200819015503 -0.05589599907398224 0.34967300295829773 -0.17376799881458282 0.9206159710884094
          0.47227901220321655 -0.07064300030469894 0.8786140084266663 0.635936975479126 -0.07320199906826019 0.7682610154151917
          0.7770000100135803 -0.059532999992370605 0.626679003238678 0.6710330247879028 -0.005510000046342611 0.7414060235023499
          0.5504279732704163 0.019749000668525696 0.8346490263938904 0.5274360179901123 0.016336999833583832 0.8494369983673096
          0.21816399693489075 -0.24018199741840363 0.9458950161933899 -0.19378399848937988 -0.3917649984359741 0.8994259834289551
          -0.2460940033197403 -0.4784550070762634 0.8429229855537415 -0.40781599283218384 -0.5320659875869751 0.74201899766922
          0.12771999835968018 -0.3260459899902344 0.9366859793663025 -0.0771389976143837 -0.2669160068035126 0.9606279730796814
          0.10572499781847 -0.22374700009822845 0.9688959717750549 -0.8136929869651794 -0.544061005115509 0.20469799637794495
          -0.887628972530365 -0.3879320025444031 0.24824300408363342 -0.8624470233917236 -0.3013420104980469 0.40666699409484863
          -0.8914309740066528 -0.33793899416923523 0.3019079864025116 -0.8635929822921753 -0.2629129886627197 0.430213987827301
          -0.8207399845123291 -0.2248540073633194 0.5251910090446472 -0.9109799861907959 -0.3072260022163391 0.2751860022544861
          -0.8665369749069214 -0.34411799907684326 0.361519992351532 -0.8557249903678894 -0.33957400918006897 0.3904150128364563
          -0.948265016078949 -0.22616100311279297 0.2228119969367981 -0.9573900103569031 -0.13987599313259125 0.2526639997959137
          -0.8597649931907654 -0.35182300209999084 0.370168000459671 -0.6330950260162354 -0.4803839921951294 0.6069779992103577
          0.279899001121521 -0.6558499932289124 -0.7010830044746399 0.4820680022239685 -0.6291189789772034 -0.6097699999809265
          0.39529600739479065 -0.6286349892616272 -0.6697459816932678 0.8775309920310974 -0.47745099663734436 0.044495001435279846
          0.8544520139694214 -0.48959800601005554 -0.17379899322986603 0.7627779841423035 -0.5505279898643494 -0.33924800157546997
          0.8456910252571106 -0.4671429991722107 0.2580389976501465 0.6284809708595276 -0.6159240007400513 -0.47502601146698
          0.8351830244064331 -0.5463700294494629 0.06284599751234055 0.12497899681329727 -0.7074580192565918 -0.6956170201301575
          -0.09521999955177307 -0.7660859823226929 -0.6356459856033325 -0.2861660122871399 -0.8145520091056824 -0.5045940279960632
          -0.3471370041370392 -0.5981540083885193 -0.7222930192947388 -0.233474999666214 -0.7323859930038452 -0.6396099925041199
          -0.4553709924221039 -0.5682929754257202 -0.6853330135345459 -0.6044290065765381 -0.5984100103378296 -0.5259010195732117
          -0.5604569911956787 -0.5211309790611267 -0.6436700224876404 -0.7304180264472961 -0.6464580297470093 -0.22041499614715576
          -0.7552270293235779 -0.551256000995636 -0.3546130061149597 -0.8427940011024475 -0.5209370255470276 0.13536199927330017
          -0.8965659737586975 -0.4418489933013916 0.03064499981701374 -0.8431529998779297 -0.5117040276527405 -0.16508300602436066
          0.833482027053833 -0.1574999988079071 0.5296239852905273 0.8197630047798157 -0.026350000873208046 0.5720959901809692
          0.827111005783081 0.0993570014834404 0.5531859993934631 0.6996719837188721 0.07612500339746475 0.7103970050811768
          0.8512210249900818 -0.2073419988155365 0.48211100697517395 0.8485450148582458 -0.37793099880218506 0.3703230023384094
          0.7812920212745667 -0.6205090284347534 -0.06746499985456467 0.6424800157546997 -0.6926239728927612 0.3278599977493286
          0.7075989842414856 -0.6917979717254639 0.1439400017261505 0.81045001745224 -0.5463799834251404 0.21128299832344055
          0.9234780073165894 -0.30897000432014465 0.22743499279022217 0.9489229917526245 -0.24463799595832825 0.19924399256706238
          0.9067689776420593 -0.39910298585891724 0.1359650045633316 0.29643601179122925 -0.13941100239753723 0.9448230266571045
          0.26859501004219055 -0.1688539981842041 0.948337972164154 0.4226920008659363 0.06192899867892265 0.9041550159454346
          0.40035098791122437 -0.03940099850296974 0.9155150055885315 0.2774380147457123 -0.05610699951648712 0.9591040015220642
          0.6020659804344177 0.020049000158905983 0.7981939911842346 0.6868159770965576 -0.002650999929755926 0.7268270254135132
          0.6057310104370117 0.044975001364946365 0.7943969964981079 0.6806139945983887 0.044071000069379807 0.731315016746521
          0.7023019790649414 0.14378699660301208 0.6972060203552246 0.5440719723701477 0.0558990016579628 0.8371750116348267
          0.3891089856624603 0.02604999952018261 0.9208229780197144 0.213810995221138 -0.16591300070285797 0.9626830220222473
          -0.3364599943161011 -0.43815600872039795 0.8335549831390381 -0.3293290138244629 -0.3263860046863556 0.886011004447937
          -0.6680359840393066 -0.5115900039672852 0.5403730273246765 -0.5064870119094849 -0.5101789832115173 0.6951169967651367
          0.12796300649642944 -0.12393900007009506 0.984004020690918 0.04223699867725372 -0.14069299399852753 0.9891520142555237
          -0.029253000393509865 -0.18357400596141815 0.982571005821228 -0.23568199574947357 -0.25244200229644775 0.9384710192680359
          -0.8971819877624512 -0.32602500915527344 0.2979469895362854 -0.8673409819602966 -0.33618900179862976 0.3670099973678589
          -0.9237629771232605 -0.14404599368572235 0.35484299063682556 -0.868153989315033 -0.05739999935030937 0.4929639995098114
          -0.8903909921646118 -0.12028399854898453 0.43901699781417847 -0.9539309740066528 -0.14329199492931366 0.2635970115661621
          -0.9335110187530518 -0.03707500174641609 0.3566269874572754 -0.9542970061302185 -0.27750301361083984 0.11094799637794495
          -0.9862509965896606 -0.10238800197839737 0.1297149956226349 -0.9569249749183655 -0.000881000014487654 0.29033198952674866
          -0.8492090106010437 -0.40651899576187134 0.3370260000228882 0.20717699825763702 -0.5189729928970337 -0.8293039798736572
          0.35943999886512756 -0.5307419896125793 -0.7675380110740662 0.336230993270874 -0.5395820140838623 -0.7718809843063354
          0.5201770067214966 -0.579774022102356 -0.6271190047264099 0.9061809778213501 -0.4188629984855652 -0.05822699889540672
          0.9059500098228455 -0.4111129939556122 0.10119800269603729 0.8675810098648071 -0.450314998626709 -0.21099600195884705
          0.6935150027275085 -0.5512940287590027 -0.46380099654197693 0.8188790082931519 -0.45000600814819336 -0.3562740087509155
          0.6628999710083008 -0.5624790191650391 -0.49414700269699097 0.02364799939095974 -0.644258975982666 -0.7644420266151428
          -0.1558389961719513 -0.6317179799079895 -0.7593730092048645 -0.3350850045681 -0.46045398712158203 -0.8220090270042419
          -0.25764000415802 -0.5032449960708618 -0.8248429894447327 -0.43489500880241394 -0.4710739850997925 -0.7674340009689331
          -0.7803289890289307 -0.452224999666214 -0.4319469928741455 -0.48611199855804443 -0.4313110113143921 -0.7600439786911011
          -0.6256939768791199 -0.4070810079574585 -0.6654260158538818 -0.9273300170898438 -0.37074899673461914 -0.05104300007224083
          -0.9002689719200134 -0.39343398809432983 -0.18634599447250366 -0.9187049865722656 -0.340707004070282 0.19974899291992188
          0.8610579967498779 -0.014756999909877777 0.508292019367218 0.872003972530365 -0.20507100224494934 0.44447198510169983
          0.8710340261459351 -0.14908599853515625 0.4680519998073578 0.8758540153503418 0.12549300491809845 0.46597400307655334
          0.8805720210075378 0.11931700259447098 0.4586449861526489 0.802420973777771 0.17426100373268127 0.570747971534729
          0.8633909821510315 0.14560799300670624 0.48306798934936523 0.8328719735145569 -0.21686199307441711 0.5092099905014038
          0.8989779949188232 -0.2158139944076538 0.3811349868774414 0.8672909736633301 -0.4265899956226349 0.2565689980983734
          0.8451219797134399 -0.19802899658679962 0.49654099345207214 0.9282969832420349 -0.14068299531936646 0.344199001789093
          0.9471459984779358 -0.27458399534225464 0.16588500142097473 0.9734629988670349 -0.1267710030078888 0.19052599370479584
          0.993332028388977 -0.0563340000808239 0.10058800131082535 0.9794520139694214 -0.12089899927377701 0.16142399609088898
          0.24131500720977783 -0.11975499987602234 0.9630290269851685 0.34084999561309814 0.2930060029029846 0.8932909965515137
          0.3375970125198364 0.1227089986205101 0.9332579970359802 0.2711640000343323 0.12272100150585175 0.9546779990196228
          0.27755698561668396 0.09547299891710281 0.9559530019760132 0.2529439926147461 -0.04042299836874008 0.9666360020637512
          0.7720190286636353 0.11824999749660492 0.6245030164718628 0.7020230293273926 0.054471999406814575 0.7100679874420166
          0.5436310172080994 -0.018306000158190727 0.8391249775886536 0.28630301356315613 -0.01687300018966198 0.9579910039901733
          0.3505989909172058 0.00851800013333559 0.9364870190620422 0.2528879940509796 0.006153999827802181 0.9674760103225708
          -0.5308369994163513 -0.3557020127773285 0.7692130208015442 -0.5278949737548828 -0.44080600142478943 0.7259590029716492
          -0.5928069949150085 -0.34380799531936646 0.7282689809799194 -0.5382130146026611 -0.32081300020217896 0.7793620228767395
          -0.71492999792099 -0.4485050141811371 0.5363940000534058 0.2496509999036789 0.07094500213861465 0.965732991695404
          0.10952699929475784 -0.058278001844882965 0.9922739863395691 -0.17910000681877136 -0.25829198956489563 0.9493200182914734
          -0.19280700385570526 -0.26518699526786804 0.9447230100631714 0.07831600308418274 -0.08450999855995178 0.993340015411377
          -0.44619399309158325 -0.3185890018939972 0.836309015750885 -0.8987039923667908 -0.05004400014877319 0.4356909990310669
          -0.8492929935455322 -0.03654700145125389 0.5266559720039368 -0.8837739825248718 -0.17080099880695343 0.4356270134449005
          -0.9025939702987671 0.03510100021958351 0.4290600121021271 0.9905539751052856 0.013327999971807003 0.13647699356079102
          0.8215969800949097 0.10346599668264389 0.560600996017456 -0.8841270208358765 -0.357481986284256 0.3008739948272705
          -0.9180840253829956 -0.31081700325012207 0.24599799513816833 -0.9459800124168396 -0.3122510015964508 0.08729500323534012
          -0.9699559807777405 -0.2398110032081604 0.04093800112605095 -0.9739879965782166 -0.05845800042152405 0.21893000602722168
          0.15717999637126923 -0.03146899864077568 0.9870690107345581 0.24617299437522888 -0.460224986076355 -0.8529899716377258
          0.05917099863290787 -0.5572490096092224 -0.8282349705696106 0.043595001101493835 -0.5132390260696411 -0.8571379780769348
          0.08627399802207947 -0.4109559953212738 -0.9075639843940735 0.22411100566387177 -0.47121500968933105 -0.8530709743499756
          0.3983420133590698 -0.5583860278129578 -0.7276870012283325 0.19540099799633026 -0.4867759943008423 -0.8513919711112976
          0.6255710124969482 -0.5147050023078918 -0.5862929821014404 0.912102997303009 -0.3745560050010681 -0.16666199266910553
          0.9621679782867432 -0.2724429965019226 0.0026889999862760305 0.953773021697998 -0.2807449996471405 0.10723000019788742
          0.9317330121994019 -0.29910799860954285 -0.20593200623989105 0.94651198387146 -0.28767499327659607 -0.14614300429821014
          0.6427389979362488 -0.5254129767417908 -0.5575190186500549 0.7260460257530212 -0.5584350228309631 -0.4012559950351715
          0.8174890279769897 -0.38225600123405457 -0.4308040142059326 -0.04341199994087219 -0.6047809720039368 -0.7952079772949219
          -0.13404600322246552 -0.5077149868011475 -0.8510329723358154 -0.22301499545574188 -0.4120739996433258 -0.8834360241889954
          -0.42367199063301086 -0.3654249906539917 -0.8288350105285645 -0.31570398807525635 -0.3779299855232239 -0.8703449964523315
          -0.9192889928817749 -0.3347969949245453 -0.20692700147628784 -0.8173289895057678 -0.3636949956417084 -0.44687798619270325
          -0.46956199407577515 -0.3599250018596649 -0.8062040209770203 -0.5985640287399292 -0.3601970076560974 -0.7155269980430603
          -0.7553970217704773 -0.3585149943828583 -0.5484910011291504 -0.9499229788780212 -0.19543999433517456 0.24382400512695312
          -0.9547939896583557 -0.29679200053215027 0.01680300012230873 -0.9567710161209106 -0.1886579990386963 0.22135299444198608
          0.8917409777641296 -0.07531800121068954 0.44623398780822754 0.8889229893684387 0.014569000340998173 0.4578250050544739
          0.8854079842567444 -0.1220960021018982 0.44849199056625366 0.8915550112724304 0.1919959932565689 0.4102039933204651
          0.9191799759864807 0.10885400325059891 0.3784950077533722 0.8971250057220459 0.16715100407600403 0.40893399715423584
          0.8560910224914551 0.03544899821281433 0.515608012676239 0.9600030183792114 -0.0589510016143322 0.27371498942375183
          0.9695299863815308 -0.17728599905967712 0.1690569967031479 0.9889000058174133 -0.09946499764919281 0.11038099974393845
          0.9989399909973145 -0.023350000381469727 0.03967000171542168 0.9946609735488892 -0.02985900081694126 0.09877900034189224
          0.9836450219154358 0.16357000172138214 0.07541199773550034 0.9809989929199219 0.152319997549057 0.12016800045967102
          0.9632009863853455 0.15098899602890015 0.22236600518226624 0.9757099747657776 0.041078001260757446 0.21518200635910034
          0.9660620093345642 0.07873400300741196 0.24602000415325165 0.3904719948768616 0.2834019958972931 0.8759080171585083
          0.38447800278663635 0.31671300530433655 0.8671039938926697 0.41616401076316833 0.1306139975786209 0.8998600244522095
          0.7448269724845886 -0.021601999178528786 0.6669080257415771 0.8028150200843811 0.0135690001770854 0.5960739850997925
          0.6796190142631531 -0.026726000010967255 0.7330780029296875 0.6994659900665283 -0.07878600060939789 0.7103090286254883
          0.4312959909439087 -0.02825400047004223 0.9017680287361145 0.5928800106048584 -0.08102399855852127 0.8012040257453918
          0.3535209894180298 0.07944300025701523 0.9320470094680786 0.16255499422550201 0.12561699748039246 0.9786710143089294
          0.287771999835968 0.05991499871015549 0.9558230042457581 0.19690300524234772 0.11934799700975418 0.9731320142745972
          -0.8293759822845459 -0.3123539984226227 0.46321800351142883 -0.777305006980896 -0.3461329936981201 0.5253459811210632
          -0.7916619777679443 -0.36552199721336365 0.4895569980144501 -0.7069129943847656 -0.30039000511169434 0.6403440237045288
          -0.7274360060691833 -0.3374130129814148 0.5974860191345215 0.26671499013900757 0.058483000844717026 0.9619989991188049
          0.45436400175094604 0.1767289936542511 0.8731099963188171 -0.2909809947013855 -0.2481440007686615 0.9239889979362488
          -0.43139100074768066 -0.3588069975376129 0.8277440071105957 -0.03589800000190735 -0.08150500059127808 0.9960259795188904
          0.18226200342178345 0.10313799977302551 0.9778259992599487 -0.6732460260391235 -0.3121179938316345 0.6703150272369385
          -0.8737509846687317 0.054304998368024826 0.4833329916000366 -0.8916789889335632 0.003220000071451068 0.452657014131546
          -0.8913519978523254 -0.011102999560534954 0.45317599177360535 -0.8854069709777832 0.0437219999730587 0.4627549946308136
          -0.9077630043029785 -0.27953100204467773 0.31277599930763245 -0.9381250143051147 -0.34046900272369385 -0.06327299773693085
          -0.9171800017356873 -0.369735985994339 0.14858199656009674 -0.9283909797668457 -0.3481070101261139 -0.13004299998283386
          -0.94862300157547 -0.06777100265026093 0.3090650141239166 -0.9442579746246338 -0.15652400255203247 0.28961700201034546
          -0.944212019443512 -0.32923799753189087 0.00810999982059002 -0.0886320024728775 -0.42187801003456116 -0.9023100137710571
          0.12186600267887115 -0.35734298825263977 -0.9259880185127258 0.09717100113630295 -0.2714729905128479 -0.9575279951095581
          -0.13922299444675446 -0.2832790017127991 -0.9488779902458191 -0.003703000023961067 -0.2138720005750656 -0.9768549799919128
          0.5777720212936401 -0.6483550071716309 -0.4957970082759857 0.21951699256896973 -0.512345016002655 -0.8302500247955322
          0.3073360025882721 -0.5375199913978577 -0.7852489948272705 0.4725410044193268 -0.5252230167388916 -0.707705020904541
          0.04930400103330612 -0.36698099970817566 -0.9289209842681885 0.9956550002098083 -0.08878099918365479 0.0280969999730587
          0.985601007938385 -0.16633400321006775 -0.03039499931037426 0.991562008857727 -0.11604200303554535 -0.057778000831604004
          0.9416490197181702 -0.24683499336242676 -0.22884699702262878 0.6167380213737488 -0.5853919982910156 -0.5262609720230103
          0.6088969707489014 -0.49533700942993164 -0.6195849776268005 0.610493004322052 -0.48435699939727783 -0.6266549825668335