<?xml version="1.0"?>
<VTKFile type="PolyData" version="0.1" byte_order="LittleEndian" header_type="UInt32" compressor="vtkZLibDataCompressor">
  <PolyData>
    <Piece NumberOfPoints="1025" NumberOfVerts="0" NumberOfLines="0" NumberOfStrips="0" NumberOfPolys="2046">
      <PointData Normals="Normals">
        <DataArray type="Float32" Name="Normals" NumberOfComponents="3" format="ascii" RangeMin="0.9999992529270612" RangeMax="1.0000007460605833">
          0.9140779972076416 0.372094988822937 -0.16126799583435059 0.9150500297546387 0.3092629909515381 -0.25891900062561035
          0.8608329892158508 0.2979399859905243 0.41255199909210205 0.8279100060462952 0.42287299036979675 0.36843401193618774
          0.6308130025863647 0.24428799748420715 -0.7364770174026489 0.763372004032135 0.3422360122203827 -0.5478479862213135
          0.889818012714386 0.27396199107170105 0.3649210035800934 0.9294779896736145 0.36880001425743103 0.007553999777883291
          0.853609025478363 0.3578290045261383 -0.3785629868507385 0.5368819832801819 0.24997900426387787 -0.8057720065116882
          0.6349210143089294 0.27449101209640503 -0.7221710085868835 0.7490410208702087 0.23571500182151794 0.619172990322113
          0.5693179965019226 0.2098200023174286 0.7948920130729675 0.8423849940299988 0.4240109920501709 -0.3325679898262024
          0.9324179887771606 0.35989299416542053 -0.03277700021862984 0.9070320129394531 0.3117769956588745 0.28299999237060547
          0.5777829885482788 0.4217259883880615 0.6987950205802917 0.6906030178070068 0.43336498737335205 0.5790179967880249
          0.44294100999832153 0.2913849949836731 0.8478779792785645 0.2556940019130707 0.1475140005350113 -0.9554370045661926
          0.3219960033893585 0.32961899042129517 -0.887507975101471 0.4934200048446655 0.265064001083374 -0.828419029712677
          0.908532977104187 0.3983359932899475 0.1260800063610077 0.7174149751663208 0.28304699063301086 0.6365529894828796
          0.8263019919395447 0.46369799971580505 -0.31970199942588806 0.2581630051136017 0.09982799738645554 -0.9609299898147583
          0.7693439722061157 0.3467499911785126 -0.5365390181541443 0.5641810297966003 0.14138400554656982 -0.8134559988975525
          0.6472160220146179 0.17925900220870972 0.7409300208091736 0.774724006652832 0.2434840053319931 0.5835390090942383
          0.3618670105934143 0.07423999905586243 0.929269015789032 0.35494399070739746 0.10619699954986572 0.9288359880447388
          0.32076799869537354 0.1366019994020462 0.9372550249099731 0.4506619870662689 0.10767800360918045 0.8861770033836365
          0.7617470026016235 0.36406001448631287 -0.5359129905700684 0.8660240173339844 0.30295899510383606 0.3977679908275604
          0.9260219931602478 0.29950299859046936 0.2297399938106537 0.9503309726715088 0.2863309979438782 0.1220029965043068
          0.8151469826698303 0.29325100779533386 -0.49953898787498474 0.9497680068016052 0.3119620084762573 0.024925999343395233
          0.9481449723243713 0.28332799673080444 0.14403599500656128 0.8938249945640564 0.21128399670124054 0.39552098512649536
          0.9509289860725403 0.25606900453567505 0.17367300391197205 0.8088030219078064 0.1605760008096695 0.5657320022583008
          0.9052579998970032 0.2890540063381195 0.31137800216674805 0.8165789842605591 0.20511600375175476 0.5395619869232178
          0.7869719862937927 0.34178200364112854 0.5136719942092896 0.6228209733963013 0.3060230016708374 0.7200300097465515
          0.28353598713874817 0.22308599948883057 0.9326519966125488 0.4309160113334656 0.2516520023345947 0.8665919899940491
          0.1452990025281906 0.1272840052843094 0.9811660051345825 0.20082299411296844 0.12013299763202667 0.9722340106964111
          0.10034999996423721 0.0573900006711483 -0.9932960271835327 0.02632799930870533 0.12050700187683105 -0.9923629760742188
          0.03488900139927864 0.12347999960184097 -0.9917340278625488 0.2771480083465576 0.051245998591184616 -0.9594600200653076
          0.17624400556087494 0.06312800198793411 -0.9823200106620789 0.6525750160217285 0.17753900587558746 -0.7366319894790649
          0.711808979511261 0.2819010019302368 0.6433190107345581 0.9100859761238098 0.271340012550354 0.3132379949092865
          0.9111459851264954 0.21104100346565247 -0.35394299030303955 0.6509820222854614 0.268667995929718 0.709958016872406
          0.04275599867105484 -0.004273000173270702 -0.9990760087966919 0.08505100011825562 -0.02215700037777424 -0.9961299896240234
          0.35104799270629883 0.09458000212907791 -0.93156898021698 0.22770200669765472 0.003541999962180853 -0.9737240076065063
          0.8344240188598633 0.09255199879407883 -0.5432969927787781 0.5908660292625427 0.030995000153779984 -0.8061739802360535
          0.2892319858074188 -0.0119420001283288 -0.9571840167045593 0.6142569780349731 0.16896100342273712 0.7708050012588501
          0.8320850133895874 0.23246200382709503 0.5035830140113831 0.7902389764785767 0.2770020067691803 0.5466189980506897
          0.6585620045661926 0.20347000658512115 0.7244970202445984 0.7307329773902893 0.2168309986591339 0.6473119854927063
          0.22819599509239197 0.03171300143003464 0.9730989933013916 0.1304119974374771 0.03332800045609474 0.9908999800682068
          0.3839159905910492 0.09629099816083908 0.9183340072631836 0.5399839878082275 0.1532520055770874 0.8276060223579407
          0.5602110028266907 0.17677000164985657 0.8092679977416992 0.48544999957084656 0.133760005235672 0.8639709949493408
          0.8985859751701355 0.26822900772094727 0.3472679853439331 0.8980900049209595 0.28783199191093445 -0.33254799246788025
          0.9641730189323425 0.2648789882659912 0.014492999762296677 0.851131021976471 0.10152799636125565 0.5150430202484131
          0.9026250243186951 0.21438999474048615 0.3732360005378723 0.5950170159339905 -0.0031930000986903906 0.8037070035934448
          0.687729001045227 0.13808399438858032 0.7127150297164917 0.5309060215950012 0.15396100282669067 0.8333280086517334
          0.2418060004711151 0.12111300230026245 0.9627360105514526 0.12978500127792358 0.04527200013399124 0.9905080199241638
          0.06747400015592575 0.01233499962836504 0.9976450204849243 -0.023421000689268112 0.03984399884939194 -0.9989309906959534
          -0.005520999897271395 0.02658900059759617 -0.9996309876441956 0.015188000164926052 -0.006246999837458134 -0.9998649954795837
          0.3762820065021515 0.059918999671936035 -0.9245659708976746 0.21622900664806366 0.1540910005569458 -0.964106023311615
          0.009649000130593777 0.12263300269842148 -0.9924049973487854 0.9007490277290344 0.18779200315475464 -0.3916440010070801
          0.8222249746322632 0.09311600029468536 -0.561493992805481 0.532895028591156 0.09633900225162506 -0.8406789898872375
          0.7949870228767395 0.25267699360847473 0.5514979958534241 0.97114497423172 0.22819800674915314 0.06930900365114212
          0.9693700075149536 0.18416200578212738 -0.16249699890613556 0.05375099927186966 -0.024125000461935997 -0.9982630014419556
          0.02963300049304962 -0.05175599828362465 -0.9982200264930725 0.026913000270724297 -0.06577000021934509 -0.9974719882011414
          0.012842000462114811 -0.08374299854040146 -0.9964050054550171 0.9466350078582764 0.10334499925374985 -0.30528900027275085
          0.7953609824180603 0.024258999153971672 -0.605650007724762 0.6126469969749451 -0.063400998711586 -0.7878100275993347
          0.2874009907245636 -0.07984200119972229 -0.9544770121574402 0.32686999440193176 -0.1466909945011139 -0.9336150288581848
          0.14573700726032257 -0.09883099794387817 -0.984375 0.8182770013809204 0.23667599260807037 0.523838996887207
          0.7628170251846313 0.2537750005722046 0.5947340130805969 0.7262740135192871 0.22825999557971954 0.6484010219573975
          0.22173699736595154 0.06827499717473984 0.9727129936218262 0.09534899890422821 0.028158999979496002 0.9950460195541382
          0.042068999260663986 -0.02077700011432171 0.998898983001709 0.045104000717401505 0.06883399933576584 0.9966080188751221
          0.031929001212120056 -0.003702000016346574 0.9994829893112183 0.04081699997186661 0.06461499631404877 0.9970750212669373
          0.38588500022888184 0.15021899342536926 0.9102339744567871 0.6089349985122681 0.21325799822807312 0.7640150189399719
          0.9782350063323975 0.20591099560260773 -0.02562900073826313 0.9440550208091736 0.15188400447368622 0.29273098707199097
          0.9220550060272217 -0.27163100242614746 0.2757369875907898 0.9382680058479309 -0.07354400306940079 0.33799999952316284
          0.8165900111198425 0.007573000155389309 0.5771679878234863 0.5290690064430237 0.038819000124931335 0.8476899862289429
          0.2519359886646271 -0.04046100005507469 0.9668980240821838 0.33978700637817383 -0.27917999029159546 0.8981109857559204
          0.6173319816589355 -0.22828300297260284 0.7528539896011353 0.04429100081324577 0.1149279996752739 0.992385983467102
          0.17945200204849243 0.05692199990153313 0.9821190237998962 0.2476630061864853 0.04120900109410286 0.9679700136184692
          0.20795899629592896 0.030629999935626984 0.9776579737663269 0.023871999233961105 0.006630000192672014 0.999692976474762
          0.058403000235557556 0.03064800053834915 -0.9978219866752625 0.187608003616333 0.021375000476837158 -0.9820110201835632
          0.0968879982829094 0.12710799276828766 -0.9871460199356079 0.3747439980506897 0.056627001613378525 -0.9253969788551331
          -0.023406000807881355 0.2148669958114624 -0.9763630032539368 -0.15321999788284302 0.16026000678539276 -0.9751099944114685
          -0.08462700247764587 0.0172169990837574 -0.9962639808654785 0.5803089737892151 -0.0363209992647171 -0.8135859966278076
          0.6877409815788269 -0.2370709925889969 -0.6861559748649597 0.9382550120353699 -0.02003300003707409 -0.3453640043735504
          0.8835330009460449 0.26335999369621277 0.38731199502944946 0.9735140204429626 0.2013539969921112 0.10828900337219238
          0.007290999870747328 -0.014446999877691269 -0.9998689889907837 -0.08327200263738632 -0.048478998243808746 -0.9953470230102539
          -0.20014600455760956 -0.10637100040912628 -0.9739750027656555 -0.29054099321365356 -0.1850699931383133 -0.9387940168380737
          -0.19004100561141968 -0.21069900691509247 -0.9589009881019592 0.026412999257445335 -0.25784701108932495 -0.9658250212669373
          0.9281870126724243 0.03839699923992157 -0.37012699246406555 0.9882550239562988 0.15274399518966675 0.004631999880075455
          0.5871260166168213 -0.08729100227355957 -0.8047749996185303 0.7866020202636719 -0.07233399897813797 -0.6132090091705322
          0.22438499331474304 -0.26745301485061646 -0.937080979347229 0.44107499718666077 -0.16492900252342224 -0.8821849822998047
          0.8532410264015198 0.21572500467300415 0.474808007478714 0.8774340152740479 0.2325810045003891 0.41954201459884644
          0.7583770155906677 0.22744500637054443 0.6108459830284119 0.12347099930047989 0.03779499977827072 0.9916279911994934
          0.11645200103521347 0.07154899835586548 0.9906160235404968 -0.04820999875664711 0.002730000065639615 0.9988340139389038
          0.029433999210596085 0.031244000419974327 0.9990779757499695 -0.07387799769639969 0.010224999859929085 0.9972149729728699
          -0.22468100488185883 0.021273000165820122 0.9742000102996826 0.41314399242401123 0.19164399802684784 0.8902720212936401
          0.22191199660301208 0.1379700005054474 0.9652559757232666 0.5354430079460144 0.20284800231456757 0.8198500275611877
          0.6768919825553894 0.20078599452972412 0.7081680297851562 0.9997190237045288 0.009851000271737576 -0.02155500091612339
          0.9720439910888672 -0.22275400161743164 0.07423300296068192 0.8071720004081726 -0.2664110064506531 0.5267810225486755
          0.7746449708938599 -0.5579820275306702 0.29762598872184753 0.7367410063743591 -0.6723160147666931 -0.07214000076055527
          0.7704190015792847 -0.5894610285758972 -0.24288100004196167 0.28104299306869507 -0.04338200017809868 0.9587140083312988
          0.18274399638175964 -0.23518100380897522 0.954617977142334 0.08314400166273117 -0.11581800132989883 0.9897840023040771
          0.5034739971160889 -0.5891680121421814 0.6319770216941833 0.12444300204515457 -0.4923650026321411 0.8614469766616821
          0.15020999312400818 0.09061600267887115 0.9844930171966553 -0.15167200565338135 0.18239299952983856 0.9714570045471191
          -0.2782140076160431 0.09092199802398682 0.9562060236930847 0.6274279952049255 -0.0031709999311715364 0.7786679863929749
          0.40397799015045166 -0.23692399263381958 0.8835539817810059 0.17179499566555023 -0.19078600406646729 0.9664819836616516
          0.9478350281715393 0.01252800039947033 0.31851500272750854 0.8251739740371704 -0.008085999637842178 0.5648210048675537
          -0.05298199877142906 -0.04290999844670296 -0.997672975063324 0.015035999938845634 -0.20960499346256256 -0.9776710271835327
          0.2928209900856018 -0.1894810050725937 -0.9372050166130066 -0.03907899931073189 -0.10371199995279312 -0.9938390254974365
          -0.04178600013256073 -0.17119400203227997 -0.9843509793281555 -0.12529000639915466 0.04035799950361252 -0.9912989735603333
          -0.16145099699497223 0.07992599904537201 -0.9836390018463135 -0.16311100125312805 0.009169000200927258 -0.9865649938583374
          -0.1353510022163391 0.14572100341320038 -0.9800230264663696 -0.1305360049009323 -0.05553000047802925 -0.989886999130249
          0.4648599922657013 -0.3046500086784363 -0.8313199877738953 0.448606014251709 -0.5517339706420898 -0.703095018863678
          0.6362980008125305 -0.5457580089569092 -0.5452269911766052 0.8937230110168457 -0.31796398758888245 -0.31647801399230957
          0.9252560138702393 0.2325419932603836 0.2997100055217743 0.8971729874610901 0.23052600026130676 0.3767470121383667
          -0.11488399654626846 -0.06850799918174744 -0.9910140037536621 -0.12685100734233856 -0.07472100108861923 -0.9891030192375183
          -0.21401500701904297 -0.08645600080490112 -0.9729970097541809 -0.3159500062465668 -0.16794000566005707 -0.9337940216064453
          -0.36278998851776123 -0.1545639932155609 -0.9189630150794983 -0.3281190097332001 -0.15034699440002441 -0.9325950145721436
          -0.4188080132007599 -0.16465799510478973 -0.8930220007896423 -0.45358899235725403 -0.27493199706077576 -0.8477439880371094
          -0.2956239879131317 -0.23519299924373627 -0.9258999824523926 -0.1261020004749298 -0.265267014503479 -0.9558929800987244
          -0.2559179961681366 -0.20651200413703918 -0.9443830251693726 -0.22867800295352936 -0.22270500659942627 -0.9476860165596008
          0.032437000423669815 -0.31565800309181213 -0.9483190178871155 -0.07806500047445297 -0.2970399856567383 -0.9516689777374268
          0.9875149726867676 0.10578300058841705 -0.11672399938106537 0.9107360243797302 -0.04452599957585335 -0.4105820059776306
          0.9849050045013428 0.007195999845862389 -0.17294499278068542 0.9733290076255798 0.1307380050420761 0.18851900100708008
          0.5700629949569702 -0.17732000350952148 -0.8022379875183105 0.0920490026473999 -0.2972809970378876 -0.9503430128097534
          0.6612629890441895 -0.1849370002746582 -0.7270010113716125 0.8573870062828064 -0.12993000447750092 -0.49800100922584534
          0.9691169857978821 0.09797699749469757 0.22630099952220917 0.956712007522583 0.11790800094604492 0.2660839855670929
          0.8367270231246948 0.1696999967098236 0.5206620097160339 0.03455600142478943 0.08841100335121155 0.9954839944839478
          -0.03989500179886818 0.038286998867988586 0.9984700083732605 -0.15459999442100525 -0.018552999943494797 0.9878029823303223
          -0.07805699855089188 0.026194000616669655 0.9966049790382385 -0.25356799364089966 -0.03513500094413757 0.9666789770126343
          -0.46095699071884155 -0.11971399933099747 0.8793100118637085 -0.49702998995780945 -0.027435999363660812 0.8672999739646912
          0.18469099700450897 0.13813500106334686 0.973039984703064 0.36788100004196167 0.16325999796390533 0.9154289960861206
          0.5528789758682251 0.19157999753952026 0.8109390139579773 0.7184450030326843 0.2047239989042282 0.6647740006446838
          0.5252630114555359 -0.8427090048789978 0.11806999891996384 0.41478899121284485 -0.8514400124549866 -0.32093700766563416
          0.2982870042324066 -0.8202679753303528 -0.48804301023483276 0.14027699828147888 -0.47056201100349426 0.8711450099945068
          0.18791399896144867 -0.2865610122680664 0.9394530057907104 0.08720099925994873 -0.3254700005054474 0.941523015499115
          0.1377979964017868 -0.8362870216369629 0.530692994594574 0.2340880036354065 -0.07733000069856644 0.9691349864006042
          0.2526949942111969 -0.07774099707603455 0.9644179940223694 0.04496200010180473 -0.03401999920606613 0.9984089732170105
          -0.11284700036048889 0.1279660016298294 0.9853379726409912 -0.1156729981303215 0.23003900051116943 0.9662830233573914
          -0.40967801213264465 0.17446699738502502 0.8953909873962402 0.29550498723983765 -0.42232799530029297 0.8569219708442688
          0.36271899938583374 -0.22331400215625763 0.9047459959983826 0.6130710244178772 -0.3431810140609741 0.7115979790687561
          0.5914199948310852 -0.3439379930496216 0.7293350100517273 0.07379200309515 -0.35903099179267883 -0.930404007434845
          -0.04040300101041794 -0.53330397605896 -0.8449580073356628 -0.06467299908399582 -0.4722299873828888 -0.8791000247001648
          0.16638599336147308 -0.5205109715461731 -0.837486982345581 -0.05827200040221214 -0.2635970115661621 -0.9628710150718689
          -0.027986999601125717 -0.4758799970149994 -0.8790649771690369 -0.18187299370765686 0.17351000010967255 -0.9678930044174194
          -0.15554499626159668 0.13423800468444824 -0.9786649942398071 -0.06509499996900558 0.07815399765968323 -0.9948139786720276
          -0.16232499480247498 0.05448799952864647 -0.9852319955825806 0.026513999328017235 -0.3099150061607361 -0.9503939747810364
          -0.31731298565864563 -0.028824999928474426 -0.9478830099105835 -0.3128269910812378 0.037300001829862595 -0.9490780234336853
          0.22508999705314636 -0.7075650095939636 -0.6698409914970398 0.878030002117157 0.18543900549411774 0.44122201204299927
          -0.33143100142478943 -0.05472100153565407 -0.9418910145759583 -0.31943199038505554 -0.11144900321960449 -0.9410330057144165
          -0.3560349941253662 -0.08945800364017487 -0.9301810264587402 -0.46126699447631836 -0.07163699716329575 -0.8843650221824646
          -0.4446060061454773 -0.30173200368881226 -0.8433759808540344 -0.7044849991798401 -0.3311370015144348 -0.6277329921722412
          -0.5722039937973022 -0.3750799894332886 -0.7293130159378052 -0.2462729960680008 -0.2182369977235794 -0.9443100094795227
          -0.14701099693775177 -0.17406700551509857 -0.9736980199813843 -0.1423649936914444 -0.18144600093364716 -0.9730409979820251
          -0.17069099843502045 -0.2831610143184662 -0.9437609910964966 -0.1679770052433014 -0.28905999660491943 -0.9424579739570618
          -0.21417899429798126 -0.22814400494098663 -0.9497780203819275 0.9974480271339417 0.0026279999874532223 -0.07134799659252167
          0.9968609809875488 0.020961999893188477 0.0763389989733696 0.8585479855537415 0.16240200400352478 0.48633500933647156
          0.9254140257835388 0.09315299987792969 0.36733001470565796 0.3648799955844879 -0.28259599208831787 -0.8871309757232666
          -0.1431719958782196 -0.3622570037841797 -0.9210169911384583 -0.18553300201892853 -0.36201798915863037 -0.9135209918022156
          -0.2117840051651001 -0.40384000539779663 -0.8899779915809631 0.5379089713096619 -0.21250900626182556 -0.8157780170440674
          0.6842359900474548 -0.2018280029296875 -0.7007759809494019 0.8967620134353638 -0.13816499710083008 -0.4203909933567047
          0.9914349913597107 -0.049483999609947205 -0.12086799740791321 0.866877019405365 -0.11990199983119965 -0.48388800024986267
          0.7264580130577087 -0.19139400124549866 -0.6600210070610046 0.9543529748916626 0.08825299888849258 0.2853429913520813
          0.9165470004081726 0.1320289969444275 0.37750598788261414 0.7876909971237183 0.19621600210666656 0.5839880108833313
          -0.02082500047981739 0.053481001406908035 0.9983519911766052 -0.4261229932308197 -0.09672000259160995 0.8994799852371216
          -0.42300400137901306 -0.11998900026082993 0.8981480002403259 -0.2790830135345459 -0.032485999166965485 0.9597169756889343
          -0.3937090039253235 -0.10819599777460098 0.9128450155258179 -0.5273510217666626 -0.18657100200653076 0.8289099931716919
          -0.6410589814186096 -0.13877500593662262 0.7548410296440125 -0.6931250095367432 -0.23554100096225739 0.6812480092048645
          -0.7131500244140625 -0.043175000697374344 0.699679970741272 0.14573700726032257 0.06134599819779396 0.9874200224876404
          0.48126399517059326 0.15834900736808777 0.8621540069580078 0.3074989914894104 0.1399179995059967 0.9412050247192383
          0.827593982219696 0.1937980055809021 0.5268110036849976 0.5947120189666748 0.13373200595378876 0.7927380204200745
          0.7660030126571655 0.18331100046634674 0.6161460280418396 0.09499900043010712 -0.9947320222854614 -0.03851199895143509
          -0.004631000105291605 -0.9610670208930969 -0.27627798914909363 -0.012811999768018723 -0.9508619904518127 -0.30935099720954895
          0.011944999918341637 -0.9415019750595093 -0.33679500222206116 0.06080299988389015 -0.7661449909210205 -0.6397849917411804
          0.0610169991850853 -0.697363018989563 0.7141169905662537 0.09671899676322937 -0.46654799580574036 0.8791919946670532
          0.04199900105595589 -0.5474460124969482 0.835785984992981 -0.03477799892425537 -0.9500049948692322 0.31029200553894043
          0.23755599558353424 -0.16971200704574585 0.9564329981803894 0.06902600079774857 -0.17345699667930603 0.982420027256012
          -0.1892250031232834 -0.2431280016899109 0.95135897397995 -0.22590599954128265 -0.14331799745559692 0.963549017906189
          -0.31850698590278625 -0.019085999578237534 0.9477279782295227 -0.3615640103816986 0.1636890023946762 0.9178659915924072
          -0.6971150040626526 0.0842989981174469 0.7119860053062439 0.5097619891166687 -0.4075070023536682 0.7576810121536255
          0.23467899858951569 -0.8344380259513855 0.49863800406455994 0.3452189862728119 -0.40425100922584534 0.8469979763031006
          0.5357980132102966 -0.5891630053520203 0.6048200130462646 -0.03814899921417236 -0.7479469776153564 -0.6626610159873962
          -0.05835200101137161 -0.5992590188980103 -0.7984259724617004 0.10193800181150436 -0.5871149897575378 -0.803059995174408
          -0.008926999755203724 -0.7079979777336121 -0.7061579823493958 -0.30535098910331726 0.16179899871349335 -0.9383929967880249
          -0.11887200176715851 0.02575800009071827 -0.9925749897956848 -0.05844699963927269 -0.03147000074386597 -0.997793972492218
          -0.3052319884300232 0.03068000078201294 -0.9517840147018433 -0.12967300415039062 0.07896500080823898 -0.9884080290794373
          -0.1925320029258728 0.08465299755334854 -0.977632999420166 0.008511999621987343 -0.3639490008354187 -0.9313799738883972
          0.11372199654579163 -0.5433059930801392 -0.8317970037460327 -0.3876979947090149 0.021028000861406326 -0.921546995639801
          -0.3114849925041199 0.034779999405145645 -0.9496150016784668 -0.22603100538253784 0.00736499996855855 -0.9740920066833496
          -0.3783450126647949 -0.009988999925553799 -0.9256110191345215 -0.19925400614738464 -0.0114120002835989 -0.9798809885978699
          -0.5927090048789978 -0.005634999834001064 -0.8053969740867615 -0.7936980128288269 -0.10879400372505188 -0.5985040068626404
          -0.26278001070022583 -0.23698599636554718 -0.9352989792823792 -0.4507859945297241 -0.33573201298713684 -0.8270890116691589
          -0.7857990264892578 -0.3814769983291626 -0.4868209958076477 -0.9047709703445435 -0.3614580035209656 -0.22525200247764587
          -0.9598900079727173 -0.24769200384616852 -0.13137799501419067 -0.1649090051651001 -0.26072099804878235 -0.9512249827384949
          -0.1591390073299408 -0.35338398814201355 -0.9218429923057556 -0.31113898754119873 -0.34717199206352234 -0.8846830129623413
          -0.2152390033006668 -0.30208900570869446 -0.9286630153656006 -0.2431039959192276 -0.331820011138916 -0.9114800095558167
          -0.21208800375461578 -0.29642701148986816 -0.9312090277671814 -0.2897239923477173 -0.2996490001678467 -0.9089940190315247
          0.9877949953079224 0.043891001492738724 0.14944800734519958 0.7713320255279541 0.13886100053787231 0.6210989952087402
          0.8861070275306702 0.08164600282907486 0.4562329947948456 0.9971269965171814 0.0012359999818727374 0.0757329985499382
          0.9878119826316833 -0.011075000278651714 0.15525799989700317 0.26156601309776306 -0.24036100506782532 -0.9347779750823975
          -0.30390700697898865 -0.3644390106201172 -0.8802409768104553 -0.33056700229644775 -0.3541969954967499 -0.874796986579895
          -0.15327900648117065 -0.27716100215911865 -0.9485179781913757 -0.3630329966545105 -0.3430050015449524 -0.8663449883460999
          0.6804839968681335 -0.17997999489307404 -0.710316002368927 0.9360870122909546 -0.1311279982328415 -0.3264150023460388
          0.8506669998168945 -0.13359199464321136 -0.5084480047225952 0.8848109841346741 -0.15612700581550598 -0.4390150010585785
          0.9582309722900391 -0.11962699890136719 -0.25977399945259094 0.9432029724121094 -0.08360599726438522 -0.3215230107307434
          0.7594389915466309 -0.17053599655628204 -0.6278290152549744 0.9619560241699219 -0.06739100068807602 -0.2647610008716583
          0.9689589738845825 -0.06219499930739403 -0.23927000164985657 -0.2844330072402954 -0.04148099943995476 0.9577980041503906
          -0.038033999502658844 0.01757900044322014 0.9991220235824585 -0.5804780125617981 -0.15222500264644623 0.7999200224876404
          -0.32076698541641235 -0.07473599910736084 0.9442049860954285 -0.19877499341964722 0.00039999998989515007 0.9800450205802917
          -0.4058400094509125 -0.06685499846935272 0.9114959836006165 -0.3349429965019226 -0.06383299827575684 0.9400740265846252
          -0.5011280179023743 -0.14372900128364563 0.8533539772033691 -0.6123089790344238 -0.15568099915981293 0.7751399874687195
          -0.6295750141143799 -0.18305400013923645 0.7550680041313171 -0.7578780055046082 -0.20771199464797974 0.6184470057487488
          -0.923770010471344 -0.21785399317741394 0.31494200229644775 -0.8193950057029724 -0.1936109960079193 0.5395429730415344
          -0.8726969957351685 -0.23311300575733185 0.4290199875831604 -0.9374240040779114 -0.1322219967842102 0.3221069872379303
          0.22925400733947754 -0.004317999817430973 0.9733570218086243 0.07372800260782242 -0.026364000514149666 0.9969300031661987
          0.3328399956226349 0.09571299701929092 0.9381129741668701 -0.005801999941468239 -0.00795000046491623 0.9999520182609558
          0.30772799253463745 0.0495930016040802 0.9501810073852539 0.44329598546028137 0.11577100306749344 0.888867974281311
          0.5633400082588196 0.06448700278997421 0.8237040042877197 0.44731101393699646 -0.03870299831032753 0.8935409784317017
          0.3801949918270111 0.06819699704647064 0.9223889708518982 0.6669880151748657 0.12484599649906158 0.7345340251922607
          0.024080000817775726 -0.9960880279541016 -0.0850289985537529 -0.10123799741268158 -0.9803959727287292 -0.1690399944782257
          -0.006686000153422356 -0.9848960041999817 -0.17301499843597412 -0.048340000212192535 -0.9052609801292419 -0.42209699749946594
          0.03358300030231476 -0.7833250164985657 0.6207039952278137 0.09437599778175354 -0.2982180118560791 0.9498209953308105
          -0.11777199804782867 -0.44631698727607727 0.8870909810066223 -0.4669879972934723 -0.33535099029541016 0.8182060122489929
          -0.5244190096855164 -0.2356410026550293 0.8182039856910706 -0.5728750228881836 -0.29097700119018555 0.7662550210952759
          -0.5907999873161316 -0.04603299871087074 0.8055040240287781 -0.7626500129699707 -0.02492699958384037 0.6463310122489929
          -0.8661199808120728 -0.09298499673604965 0.49111101031303406 -0.8307240009307861 -0.008363000117242336 0.5566220283508301
          -0.8285880088806152 -0.002877000020816922 0.5598520040512085 0.3783479928970337 -0.8287739753723145 0.41229501366615295
          0.3054090142250061 -0.937017023563385 0.16948099434375763 0.3102650046348572 -0.9320930242538452 -0.18692000210285187
          0.19061699509620667 -0.9495390057563782 -0.24907900393009186 0.302498996257782 -0.7333049774169922 0.6088989973068237
          0.06525500118732452 -0.5824469923973083 0.8102449774742126 0.13504600524902344 -0.8049839735031128 -0.5777230262756348
          0.19742099940776825 -0.7162230014801025 -0.6693649888038635 0.051309000700712204 -0.7316340208053589 -0.6797639727592468
          0.08774200081825256 -0.845874011516571 -0.5261160135269165 0.02913299947977066 -0.8830919861793518 -0.46829500794410706
          -0.3314509987831116 0.02925500087440014 -0.9430189728736877 -0.6511780023574829 0.03159699961543083 -0.7582669854164124
          -0.044833000749349594 -0.19937700033187866 -0.978896975517273 -0.644402027130127 -0.15995299816131592 -0.7477710247039795
          -0.35803601145744324 -0.07464899867773056 -0.9307190179824829 -0.5014410018920898 0.04166899994015694 -0.864188015460968
          -0.18766699731349945 0.09151700139045715 -0.9779599905014038 0.09836799651384354 -0.6235330104827881 -0.7755839824676514
          0.007871000096201897 -0.5234429836273193 -0.8520240187644958 -0.4136669933795929 -0.024701999500393867 -0.9100930094718933
          -0.2714110016822815 0.02166599966585636 -0.9622200131416321 -0.7628229856491089 -0.13849399983882904 -0.6316019892692566