<?xml version="1.0"?>
<VTKFile type="PolyData" version="0.1" byte_order="LittleEndian" header_type="UInt32" compressor="vtkZLibDataCompressor">
  <PolyData>
    <Piece NumberOfPoints="1288" NumberOfVerts="0" NumberOfLines="0" NumberOfStrips="0" NumberOfPolys="2572">
      <PointData Normals="Normals">
        <DataArray type="Float32" Name="Normals" NumberOfComponents="3" format="ascii" RangeMin="0.999999329208795" RangeMax="1.0000008008481767">
          0.3224389851093292 -0.9253330230712891 -0.19947999715805054 0.1545809954404831 -0.9391980171203613 -0.3066120147705078
          0.24854299426078796 -0.8644930124282837 -0.4368959963321686 0.333063006401062 -0.8312360048294067 -0.4451029896736145
          -0.04759199917316437 -0.9985020160675049 -0.026988999918103218 0.46474000811576843 -0.8850209712982178 0.02745700068771839
          0.20641900599002838 -0.9781969785690308 0.02284500002861023 0.47648200392723083 -0.8682460188865662 -0.13825400173664093
          0.06450200080871582 -0.8120080232620239 -0.580070972442627 -0.04602999985218048 -0.9001780152320862 -0.4330820143222809
          -0.06349200010299683 -0.9720780253410339 -0.22590400278568268 0.15119999647140503 -0.7132160067558289 -0.6844429969787598
          0.21544300019741058 -0.6578689813613892 -0.7216600179672241 0.488631010055542 -0.8019520044326782 -0.3436740040779114
          0.3723500072956085 -0.6739950180053711 -0.6380329728126526 -0.22553999722003937 -0.9742119908332825 0.0066109998151659966
          -0.09819000214338303 -0.9383659958839417 0.3314020037651062 -0.23662400245666504 -0.9251670241355896 0.2967759966850281
          0.31602099537849426 -0.8674110174179077 0.38435399532318115 0.6601020097732544 -0.7510719895362854 -0.012548999860882759
          0.583253026008606 -0.7817959785461426 0.22047600150108337 0.6404020190238953 -0.7316420078277588 -0.23363299667835236
          -0.1921440064907074 -0.7990700006484985 -0.5697090029716492 -0.1197350025177002 -0.6931099891662598 -0.7108179926872253
          0.03718100115656853 -0.6098909974098206 -0.7916120290756226 -0.1566859930753708 -0.9525049924850464 -0.26111900806427
          -0.2982180118560791 -0.9104790091514587 -0.28652000427246094 0.11900100111961365 -0.5201349854469299 -0.845753014087677
          0.09033700078725815 -0.5483959913253784 -0.8313249945640564 0.2609719932079315 -0.5709869861602783 -0.7783750295639038
          0.5645790100097656 -0.678617000579834 -0.46981799602508545 0.5252370238304138 -0.5667880177497864 -0.6347270011901855
          0.30838900804519653 -0.4673900008201599 -0.8285189867019653 -0.32016101479530334 -0.9452810287475586 -0.06277000159025192
          -0.3059290051460266 -0.9045730233192444 0.29691100120544434 0.057746998965740204 -0.8732950091362 0.48375698924064636
          -0.10918399691581726 -0.8665220141410828 0.48705199360847473 -0.16617800295352936 -0.7052879929542542 0.6891689896583557
          -0.24138599634170532 -0.8175619840621948 0.5228049755096436 0.5117130279541016 -0.7341039776802063 0.44636398553848267
          0.4061500132083893 -0.6558250188827515 0.6363459825515747 0.2547450065612793 -0.7876669764518738 0.5609689950942993
          0.5895799994468689 -0.6992189884185791 0.40433698892593384 0.6169949769973755 -0.7656300067901611 0.1820099949836731
          0.6902599930763245 -0.7225180268287659 -0.03883599862456322 0.6752840280532837 -0.6353790163993835 -0.37454700469970703
          0.7085260152816772 -0.62779301404953 -0.3222840130329132 0.5486699938774109 -0.6299239993095398 0.5496879816055298
          -0.3138599991798401 -0.7440299987792969 -0.5898399949073792 -0.34240099787712097 -0.7970759868621826 -0.49742498993873596
          -0.3806000053882599 -0.6948660016059875 -0.6101679801940918 -0.21976099908351898 -0.597756028175354 -0.7709689736366272
          -0.024195000529289246 -0.5378410220146179 -0.8426989912986755 0.07716599851846695 -0.4219279885292053 -0.9033390283584595
          -0.3884209990501404 -0.9039570093154907 0.17886100709438324 -0.5270529985427856 -0.8497620224952698 -0.010964999906718731
          -0.5205739736557007 -0.832912027835846 -0.1877789944410324 0.1529349982738495 -0.40480101108551025 -0.9015250205993652
          0.06288199871778488 -0.3917340040206909 -0.9179270267486572 0.7355819940567017 -0.4856489896774292 -0.4722979962825775
          0.6521689891815186 -0.43120598793029785 -0.6234869956970215 0.4479779899120331 -0.4052770137786865 -0.7969099879264832
          0.17178399860858917 -0.3386960029602051 -0.9250810146331787 0.31433799862861633 -0.278438001871109 -0.9075589776039124
          -0.3569369912147522 -0.8765079975128174 0.32300201058387756 -0.29262998700141907 -0.7199180126190186 0.6293540000915527
          -0.28778699040412903 -0.7932069897651672 0.536657989025116 0.08123599737882614 -0.7893149852752686 0.6085900068283081
          -0.02518800087273121 -0.5546560287475586 0.8316980004310608 -0.23122499883174896 -0.6051269769668579 0.7618110179901123
          -0.0996370017528534 -0.3550570011138916 0.9295200109481812 -0.14003799855709076 -0.4174169898033142 0.8978599905967712
          0.4264970123767853 -0.4997529983520508 0.7538890242576599 0.1576869934797287 -0.6209909915924072 0.7677919864654541
          0.21812400221824646 -0.4114820063114166 0.8849319815635681 0.4948410093784332 -0.5353350043296814 0.6845070123672485
          0.4463520050048828 -0.599914014339447 0.6639829874038696 0.5878549814224243 -0.5297679901123047 0.6113700270652771
          0.7487949728965759 -0.6470940113067627 0.1434440016746521 0.8711199760437012 -0.4710859954357147 -0.1386680006980896
          -0.5168960094451904 -0.7382100224494934 -0.43343299627304077 -0.6162030100822449 -0.7135059833526611 -0.33347100019454956
          -0.505823016166687 -0.698839008808136 -0.5057340264320374 -0.38617900013923645 -0.5985450148582458 -0.7018619775772095
          -0.2901049852371216 -0.48029500246047974 -0.8277410268783569 -0.1328669935464859 -0.44394800066947937 -0.8861470222473145
          0.01568399928510189 -0.39118099212646484 -0.9201800227165222 0.020896999165415764 -0.23135100305080414 -0.9726459980010986
          0.07962699979543686 -0.2272080034017563 -0.9705849885940552 0.7462570071220398 -0.6635810136795044 0.0525440014898777
          -0.4068869948387146 -0.7165409922599792 0.5665789842605591 -0.48593300580978394 -0.6626489758491516 0.5698819756507874
          -0.28883200883865356 -0.9000419974327087 0.32634299993515015 0.950609028339386 -0.302717000246048 0.06859800219535828
          -0.392875999212265 -0.9194530248641968 -0.01595900021493435 -0.6790170073509216 -0.6929749846458435 -0.2423280030488968
          -0.605476975440979 -0.7941799759864807 -0.05172700062394142 0.8374149799346924 -0.44211500883102417 -0.32135701179504395
          0.8202360272407532 -0.3445500135421753 -0.45661601424217224 0.5504630208015442 -0.33192598819732666 -0.7660390138626099
          0.3829289972782135 -0.1323709934949875 -0.9142450094223022 0.14408299326896667 -0.2134139984846115 -0.9662789702415466
          0.2576020061969757 -0.17116299271583557 -0.9509699940681458 -0.2915380001068115 -0.6718310117721558 0.6809170246124268
          -0.21287000179290771 -0.5801659822463989 0.7861899733543396 -0.2064480036497116 -0.5229129791259766 0.8270080089569092
          0.05748799815773964 -0.39281800389289856 0.917818009853363 0.013717000372707844 -0.2438870072364807 0.9697070121765137
          -0.027396999299526215 -0.1493699997663498 0.9884020090103149 -0.11063399910926819 -0.2865169942378998 0.951665997505188
          0.37063801288604736 -0.42078500986099243 0.8279899954795837 0.17960399389266968 -0.3011690080165863 0.9365040063858032
          0.07694800198078156 -0.2334039956331253 0.9693300127983093 0.45573899149894714 -0.35431599617004395 0.8165550231933594
          0.5854930281639099 -0.24607299268245697 0.7724289894104004 0.7808570265769958 -0.33252501487731934 0.5288559794425964
          0.7026230096817017 -0.22491200268268585 0.6750820279121399 0.9103620052337646 -0.33771198987960815 0.23914800584316254
          0.9320240020751953 -0.32792899012565613 0.1542540043592453 -0.752705991268158 -0.6397340297698975 -0.15547999739646912
          -0.7321839928627014 -0.6796650290489197 -0.04429600015282631 -0.644245982170105 -0.6492800116539001 -0.4042060077190399
          -0.4704900085926056 -0.561227023601532 -0.6809279918670654 -0.1398569941520691 -0.2638449966907501 -0.954371988773346
          -0.4398449957370758 -0.4224179983139038 -0.7925270199775696 -0.3522639870643616 -0.27963098883628845 -0.8931499719619751
          0.03959700092673302 -0.1276179999113083 -0.9910330176353455 -0.0039369999431073666 -0.10069400072097778 -0.9949100017547607
          -0.01629900000989437 -0.07484500110149384 -0.9970620274543762 -0.10650800168514252 -0.11148999631404877 -0.9880409836769104
          0.24201500415802002 -0.9693319797515869 0.04271800071001053 -0.3108089864253998 -0.48617300391197205 0.8167210221290588
          -0.34300899505615234 -0.49682098627090454 0.7971919775009155 -0.3680199980735779 -0.36316201090812683 0.8559640049934387
          -0.510047972202301 -0.42494499683380127 0.7478449940681458 -0.6301389932632446 -0.631604015827179 0.4516650140285492
          -0.555010974407196 -0.802573025226593 0.21872000396251678 -0.7123969793319702 -0.7005940079689026 -0.040720000863075256
          0.9347050189971924 -0.3333060145378113 -0.12342700362205505 0.9437170028686523 -0.15869100391864777 -0.29019901156425476
          0.7572799921035767 -0.2971639931201935 -0.5815680027008057 0.9004319906234741 -0.2284960001707077 -0.37015101313591003
          0.5634580254554749 -0.25478699803352356 -0.7858740091323853 0.2255849987268448 -0.11876100301742554 -0.9669579863548279
          0.2221519947052002 0.008647000417113304 -0.9749739766120911 0.6809639930725098 -0.20789499580860138 -0.7021870017051697
          0.5254129767417908 0.023830000311136246 -0.8505139946937561 0.6438739895820618 -0.08215600252151489 -0.7607079744338989
          0.24825699627399445 0.05734400078654289 -0.9669950008392334 0.00034699999378062785 -0.12824499607086182 -0.9917420148849487
          -0.19835999608039856 -0.3416210114955902 0.9186670184135437 -0.028680000454187393 -0.0989919975399971 0.9946749806404114
          0.1704609990119934 -0.22304199635982513 0.959788978099823 -0.0058479998260736465 0.09352000057697296 0.9955999851226807
          -0.05465000122785568 0.05123100057244301 0.997189998626709 0.03142099827528 -0.05524199828505516 0.9979779720306396
          -0.12331300228834152 -0.190419003367424 0.9739270210266113 0.36537599563598633 -0.2107580006122589 0.9066870212554932
          0.4265109896659851 -0.06771499663591385 0.9019439816474915 0.6538469791412354 -0.055417001247406006 0.7545940279960632
          0.8377609848976135 -0.14906999468803406 0.5252940058708191 0.8561310172080994 -0.04747400060296059 0.5145739912986755
          0.9209100008010864 -0.16993600130081177 0.35078099370002747 -0.8359619975090027 -0.5475010275840759 -0.0375480018556118
          -0.7798280119895935 -0.5199459791183472 -0.3486039936542511 -0.8089100122451782 -0.5840820074081421 0.0671750009059906
          -0.8224769830703735 -0.5064589977264404 0.25890201330184937 -0.6144689917564392 -0.4516940116882324 -0.6468380093574524
          -0.19111000001430511 -0.16077099740505219 -0.9683129787445068 -0.481810986995697 -0.34234899282455444 -0.8066319823265076
          -0.4942780137062073 -0.21684899926185608 -0.8418229818344116 -0.31686198711395264 -0.07812800258398056 -0.945248007774353
          0.06001799926161766 0.040963999927043915 -0.9973559975624084 -0.06443200260400772 -0.07411599904298782 -0.995166003704071
          -0.14187300205230713 0.052239999175071716 -0.988506019115448 -0.26607099175453186 0.07096199691295624 -0.9613379836082458
          -0.2764340043067932 -0.27228400111198425 0.9216539859771729 -0.446258008480072 -0.24761100113391876 0.859965980052948
          -0.6175510287284851 -0.36979201436042786 0.6941789984703064 -0.7276639938354492 -0.5829650163650513 0.3614659905433655
          -0.8450329899787903 -0.5110700130462646 0.1572449952363968 -0.8492050170898438 -0.5201330184936523 -0.0911720022559166
          0.9941030144691467 -0.1072470024228096 -0.016026999801397324 0.9578689932823181 -0.2509399950504303 0.13969700038433075
          0.9734609723091125 -0.10451799631118774 -0.2035900056362152 0.9981300234794617 0.048013001680374146 0.03784000128507614
          0.9879000186920166 -0.036997999995946884 -0.15061700344085693 0.8280379772186279 -0.24034999310970306 -0.506542980670929
          0.9244499802589417 -0.20572300255298615 -0.32104501128196716 0.19058899581432343 -0.028113000094890594 -0.981266975402832
          0.09085100144147873 -0.037126000970602036 -0.9951720237731934 0.029099000617861748 0.14643199741840363 -0.9887930154800415
          0.12582099437713623 0.05015400052070618 -0.9907839894294739 0.7947250008583069 -0.16512900590896606 -0.5840749740600586
          0.7904340028762817 0.06837400048971176 -0.608718991279602 0.7980570197105408 0.1021910011768341 -0.5938529968261719
          0.3732689917087555 0.03670100122690201 -0.9269970059394836 0.49039798974990845 0.1637219935655594 -0.8559820055961609
          0.7497149705886841 0.13581499457359314 -0.647674024105072 0.8742889761924744 -0.06052900105714798 -0.4816170036792755
          0.23260000348091125 0.19436199963092804 -0.9529539942741394 0.04984600096940994 0.1731950044631958 -0.9836260080337524
          -0.16526199877262115 0.024470999836921692 -0.985945999622345 -0.10395699739456177 -0.13471800088882446 0.9854159951210022
          0.2376279979944229 -0.044773001223802567 0.9703239798545837 0.041120998561382294 0.22123800218105316 0.9743520021438599
          -0.07719899713993073 0.009902000427246094 0.9969660043716431 0.1603589951992035 0.18807700276374817 0.9689750075340271
          0.14478500187397003 0.13929599523544312 0.9796090126037598 0.03922199830412865 0.1044439971446991 0.9937570095062256
          0.03569599986076355 0.11150799691677094 0.9931219816207886 0.16909100115299225 0.11793900281190872 0.9785190224647522
          0.4163439869880676 0.12835200130939484 0.9001020193099976 0.7210339903831482 0.05515800043940544 0.6907010078430176
          0.5892090201377869 0.12823200225830078 0.7977399826049805 0.6521580219268799 0.18339599668979645 0.7355650067329407
          0.7772830128669739 0.08352600038051605 0.6235820055007935 0.8062949776649475 0.05560100078582764 0.5888950228691101
          0.9380369782447815 -0.01936499960720539 0.3459939956665039 -0.9084010124206543 -0.3879449963569641 -0.15590299665927887
          -0.9442710280418396 -0.2830809950828552 0.16798199713230133 -0.8740389943122864 -0.3952940106391907 0.28248700499534607
          -0.6341559886932373 -0.4161039888858795 -0.6516929864883423 -0.8900240063667297 -0.4553450047969818 -0.022770000621676445
          -0.8008459806442261 -0.34920498728752136 -0.4865190088748932 -0.4960390031337738 -0.34946900606155396 -0.7948690056800842
          -0.6254169940948486 -0.2727699875831604 -0.7310609817504883 -0.6550700068473816 -0.1824450045824051 -0.733210027217865
          -0.5308550000190735 -0.07079800218343735 -0.8445000052452087 -0.2673490047454834 0.020538000389933586 -0.9633809924125671
          -0.07434699684381485 0.1049799993634224 -0.991690993309021 0.09017299860715866 0.1446560025215149 -0.9853649735450745
          0.04441799968481064 -0.04680899903178215 -0.9979159832000732 -0.11202099919319153 0.16109900176525116 -0.9805600047111511
          0.08504799753427505 0.16952000558376312 -0.9818500280380249 -0.3029960095882416 0.10954000055789948 -0.9466760158538818
          -0.16014300286769867 0.11295200139284134 -0.9806100130081177 -0.2373329997062683 0.01635799929499626 -0.9712910056114197
          -0.2671689987182617 -0.10860300064086914 0.9575099945068359 -0.4396759867668152 -0.15696699917316437 0.8843340277671814
          -0.6032549738883972 -0.3019619882106781 0.7381749749183655 -0.7821829915046692 -0.40587499737739563 0.4727109968662262
          -0.7699049711227417 -0.22046400606632233 0.5988680124282837 -0.924347996711731 -0.30264800786972046 0.2323479950428009
          -0.9387930035591125 -0.3442769944667816 -0.011888000182807446 0.9700019955635071 0.11179500073194504 0.21586300432682037
          0.8739070296287537 0.26109498739242554 0.4100179970264435 0.8182529807090759 0.23069900274276733 0.5265359878540039
          0.9234809875488281 0.17332300543785095 0.3422600030899048 0.9825140237808228 0.1766750067472458 0.0587569996714592
          0.9103869795799255 -0.16065500676631927 -0.38129401206970215 0.9875959753990173 -0.0586559996008873 -0.14564700424671173
          0.9922999739646912 0.10979299992322922 0.057328000664711 0.00735200010240078 0.08831799775362015 -0.9960650205612183
          -0.19953800737857819 0.050241999328136444 -0.9786009788513184 0.020184999331831932 0.11467999964952469 -0.9931970238685608
          -0.09567199647426605 0.012192999944090843 -0.9953380227088928 0.9511809945106506 0.12435299903154373 -0.28247401118278503
          0.9122560024261475 0.14511099457740784 -0.3830550014972687 0.9233310222625732 0.1809609979391098 -0.3386929929256439
          0.6875630021095276 0.27601099014282227 -0.6716210246086121 0.374457985162735 0.4748449921607971 -0.7964320182800293
          0.848397970199585 0.30413898825645447 -0.4332680106163025 0.9743800163269043 0.02476399950683117 -0.22353999316692352
          0.23683400452136993 0.3681980073451996 -0.8990769982337952 0.18692199885845184 0.5953500270843506 -0.7814210057258606
          0.2613849937915802 0.20393399894237518 -0.9434450268745422 0.2022629976272583 0.27498701214790344 0.9399319887161255
          0.13565899431705475 0.3012849986553192 0.9438350200653076 -0.32136398553848267 0.08239699900150299 0.9433640241622925
          -0.0866359993815422 0.15117000043392181 0.9847040176391602 -0.033587001264095306 0.07626300305128098 0.9965220093727112
          0.15654000639915466 0.3050220012664795 0.9393919706344604 0.31843599677085876 0.26014700531959534 0.9115489721298218
          0.27381300926208496 0.10069700330495834 0.9564970135688782 -0.0646279975771904 0.052643999457359314 0.9965199828147888
          0.0036230001132935286 0.07591500133275986 0.997107982635498 -0.06446199864149094 0.09280499815940857 0.9935950040817261
          0.05863599851727486 0.12058400362730026 0.9909700155258179 0.01068899966776371 0.1368730068206787 0.9905310273170471
          0.4625000059604645 0.23601600527763367 0.8546280264854431 0.6411899924278259 0.19876599311828613 0.7411929965019226
          0.4277530014514923 0.33795401453971863 0.8383409976959229 0.786765992641449 0.06311500072479248 0.6140159964561462
          0.9041380286216736 0.024576999247074127 0.42653200030326843 -0.9065319895744324 -0.15165700018405914 0.3939549922943115
          -0.8754159808158875 -0.10499600321054459 0.47182899713516235 -0.9035249948501587 0.014589999802410603 0.42828699946403503
          -0.9270730018615723 -0.1928270012140274 0.3214859962463379 -0.9206730127334595 -0.2906759977340698 0.26051801443099976
          -0.9081199765205383 -0.3407590091228485 -0.2433129996061325 -0.9622910022735596 -0.2708840072154999 0.02483700029551983
          -0.9527140259742737 -0.19766299426555634 -0.2307939976453781 -0.8277209997177124 -0.20100000500679016 -0.5239059925079346
          -0.8728389739990234 -0.1096699982881546 -0.47552499175071716 -0.7579209804534912 -0.05778399854898453 -0.6497830152511597
          -0.47360000014305115 0.07804399728775024 -0.8772749900817871 -0.7457590103149414 0.08834200352430344 -0.660332977771759
          -0.16535599529743195 0.2555600106716156 -0.952547013759613 -0.23665300011634827 0.12705400586128235 -0.963250994682312
          0.1172569990158081 0.2169329971075058 -0.9691179990768433 -0.2504290044307709 0.21403899788856506 -0.9441779851913452
          0.0567919984459877 0.25422701239585876 -0.9654759764671326 -0.09454499930143356 0.06484799832105637 -0.9934059977531433
          0.11178799718618393 0.07868299633264542 -0.9906119704246521 0.15567399561405182 0.07132299989461899 -0.985230028629303
          -0.027556000277400017 -0.00724400021135807 -0.99959397315979 -0.025451000779867172 -0.12380199879407883 -0.991981029510498
          -0.6578969955444336 -0.15101000666618347 0.7378129959106445 -0.555715024471283 0.08733300119638443 0.8267729878425598
          -0.7432730197906494 -0.20645199716091156 0.6363360285758972 -0.73158198595047 -0.01513999979943037 0.6815860271453857
          -0.8152030110359192 -0.06793999671936035 0.575177013874054 0.8812479972839355 0.11761900037527084 0.4577850103378296
          0.7390660047531128 0.1905139982700348 0.6461309790611267 0.5954210162162781 0.3099749982357025 0.741208016872406
          0.4973509907722473 0.35101500153541565 0.7933670282363892 0.7035160064697266 0.3212920129299164 0.6339060068130493
          0.8806520104408264 0.2916780114173889 0.3733299970626831 0.884227991104126 0.3103429973125458 0.3490389883518219
          0.9919490218162537 0.07531700283288956 0.10180400311946869 0.16171200573444366 -0.03323400020599365 -0.9862779974937439
          0.051316998898983 -0.15037600696086884 -0.9872959852218628 0.9781339764595032 0.18415899574756622 0.09664200246334076
          0.972724974155426 0.1625719964504242 -0.16545599699020386 0.9677659869194031 0.1977899968624115 0.15590800344944
          0.9658610224723816 0.22921399772167206 0.12071699649095535 0.9104130268096924 0.3390370011329651 -0.23706799745559692
          0.6521919965744019 0.35391300916671753 -0.6703659892082214 0.3695879876613617 0.6109579801559448 -0.7000960111618042
          0.7245540022850037 0.4521630108356476 -0.5201640129089355 0.5662819743156433 0.6341609954833984 -0.5264639854431152
          0.4613640010356903 0.5253890156745911 -0.7149199843406677 0.29780399799346924 0.35710400342941284 -0.8853189945220947
          0.4117099940776825 -0.01512099988758564 -0.9111890196800232 0.5330190062522888 0.10730300098657608 -0.8392710089683533
          0.5806949734687805 0.28444600105285645 -0.7628139853477478 0.23675300180912018 0.36858001351356506 0.8989419937133789
          -0.37864500284194946 0.2572470009326935 0.8890740275382996 -0.14141200482845306 0.16972599923610687 0.975292980670929
          -0.21782299876213074 0.06309899687767029 0.9739469885826111 -0.22246000170707703 0.014573999680578709 0.9748330116271973
          0.4470120072364807 0.32210901379585266 0.8345209956169128 0.5277090072631836 0.1965329945087433 0.8263760209083557
          0.10914000123739243 0.06284199655056 0.9920380115509033 0.4245629906654358 0.12689200043678284 0.8964629769325256
          0.17895899713039398 0.1054769977927208 0.9781860113143921 -0.2211879938840866 0.06232199817895889 0.9732379913330078
          -0.16223500669002533 0.08438300341367722 0.9831380248069763 -0.2388090044260025 0.029690999537706375 0.9706130027770996
          0.32665500044822693 0.39981499314308167 0.8564140200614929 -0.8951839804649353 -0.007218000013381243 0.4456390142440796
          -0.844186007976532 0.1394139975309372 0.5176039934158325 -0.8530380129814148 0.08324100077152252 0.5151680111885071
          -0.7478060126304626 0.001686000032350421 0.6639149785041809 -0.7052919864654541 0.10193099826574326 0.7015510201454163
          -0.721081018447876 0.2520659863948822 0.6453719735145569 -0.9684950113296509 -0.1228019967675209 0.21665099263191223
          -0.9881629943847656 -0.14733999967575073 0.0427279993891716 -0.9729700088500977 -0.11940199881792068 -0.19766800105571747
          -0.9284330010414124 0.033991001546382904 -0.3699420094490051 -0.9889039993286133 0.0031999999191612005 -0.14851799607276917
          -0.5287929773330688 0.30546000599861145 -0.7918789982795715 -0.2875339984893799 0.2812179923057556 -0.9155550003051758
          -0.8236129879951477 0.21975600719451904 -0.5228469967842102 -0.9515659809112549 0.1712159961462021 -0.2553569972515106
          -0.29174500703811646 0.31307101249694824 -0.9038100242614746 -0.3306100070476532 0.2158219963312149 -0.9187589883804321
          -0.20838700234889984 0.3947739899158478 -0.8948349952697754 0.10389800369739532 0.7347509860992432 -0.6703330278396606
          -0.3873560130596161 0.34952500462532043 -0.8531050086021423 -0.09518899768590927 0.3438290059566498 -0.9341949820518494
          -0.35234498977661133 -0.15076300501823425 -0.9236469864845276 -0.07791599631309509 -0.21913999319076538 -0.9725769758224487
          -0.01912599988281727 -0.2137330025434494 -0.976705014705658 -0.1846030056476593 -0.22978000342845917 -0.9555749893188477
          -0.6153370141983032 0.10985399782657623 0.7805719971656799 0.37680500745773315 0.3717919886112213 0.8484039902687073
          0.29526299238204956 0.38722699880599976 0.8734269738197327 0.6693450212478638 0.3852890133857727 0.6352400183677673
          0.6236690282821655 0.40459200739860535 0.6688359975814819 0.5350549817085266 0.44032999873161316 0.7209889888763428
          0.8903579711914062 0.24561700224876404 0.38332098722457886 0.7109429836273193 0.31536000967025757 0.6285759806632996
          0.1701209992170334 -0.14117899537086487 -0.9752579927444458 0.03657500073313713 -0.1904750019311905 -0.9810109734535217
          0.846343994140625 0.24160200357437134 0.4746899902820587 0.8236849904060364 0.22071999311447144 0.5223270058631897
          0.9168670177459717 0.3652079999446869 0.16117699444293976 0.7585980296134949 0.31947198510169983 0.5678619742393494
          0.8862069845199585 0.46278300881385803 -0.021647000685334206 0.8210690021514893 0.4703890085220337 -0.32339000701904297
          0.8141080141067505 0.5780789852142334 -0.05525200068950653 0.7359859943389893 0.6243630051612854 0.26171401143074036
          0.6459810137748718 0.7000349760055542 -0.3043999969959259 0.6629469990730286 0.6017640233039856 -0.44540199637413025
          0.6254019737243652 0.05023900046944618 -0.7786840200424194 0.361178994178772 -0.13471999764442444 -0.9227139949798584
          0.6575109958648682 -0.07437100261449814 -0.7497649788856506 0.8294399976730347 0.31241801381111145 -0.4630599915981293
          0.7478219866752625 0.09019699692726135 -0.6577439904212952 0.33644598722457886 0.36846598982810974 0.8666239976882935
          -0.522225022315979 0.2265390008687973 0.8221679925918579 -0.5173090100288391 0.23349499702453613 0.823328971862793
          -0.35569900274276733 0.11890500038862228 0.9270060062408447 -0.3981980085372925 0.02694999985396862 0.9169039726257324
          0.5401059985160828 0.26862800121307373 0.797573983669281 0.655534029006958 0.19008499383926392 0.7308509945869446
          -0.00672199996188283 0.1083889976143837 0.9940860271453857 0.22363199293613434 0.1199830025434494 0.9672600030899048
          0.2786160111427307 0.134552001953125 0.9509310126304626 0.5309939980506897 0.12012899667024612 0.8388170003890991
          0.829695999622345 0.08403100073337555 0.5518550276756287 0.686784029006958 0.07567200064659119 0.7229120135307312
          -0.37709200382232666 0.029930999502539635 0.9256920218467712 -0.38975900411605835 0.02981100045144558 0.9204339981079102
          -0.08194400370121002 0.09337999671697617 0.9922530055046082 -0.2859640121459961 0.025567999109625816 0.9578989744186401
          -0.2747960090637207 0.07180000096559525 0.9588180184364319 -0.05225000157952309 0.11712200194597244 0.9917420148849487
          -0.4206399917602539 -0.016090000048279762 0.9070850014686584 -0.9840729832649231 -0.044665999710559845 0.17206299304962158
          -0.8084269762039185 0.15104800462722778 0.5688859820365906 -0.8526530265808105 0.12054800242185593 0.5083810091018677
          -0.7442629933357239 0.24172699451446533 0.6226069927215576 -0.5389670133590698 0.2843700051307678 0.7928739786148071
          -0.9924219846725464 0.12271200120449066 -0.006409000139683485 -0.9871429800987244 0.07663100212812424 0.14027099311351776
          -0.41962501406669617 0.623790979385376 -0.6593930125236511 -0.7831220030784607 0.39279401302337646 -0.48211199045181274
          -0.898114025592804 0.12393099814653397 -0.42193999886512756 -0.9773939847946167 0.18171900510787964 0.10806799679994583
          -0.9380329847335815 0.2737559974193573 0.21248799562454224 -0.9546040296554565 0.2972410023212433 -0.019439000636339188
          -0.5669630169868469 0.16651900112628937 -0.8067370057106018 -0.356564998626709 0.3992049992084503 -0.8446869850158691
          -0.49201199412345886 -0.03209799900650978 -0.8699970245361328 -0.40065398812294006 -0.25451698899269104 -0.8801689743995667
          -0.6060130000114441 -0.2576879858970642 -0.7525590062141418 -0.5138350129127502 -0.17059800028800964 -0.8407559990882874
          -0.1510619968175888 -0.28386199474334717 -0.9468910098075867 -0.18056200444698334 -0.24747200310230255 -0.9519219994544983
          0.008627000264823437 -0.2508139908313751 -0.9679970145225525 -0.12030299752950668 -0.20879299938678741 -0.9705320000648499
          0.374224990606308 0.33658498525619507 0.8640990257263184 0.5546090006828308 0.3401679992675781 0.7594050168991089
          0.6666619777679443 0.28175100684165955 0.6900569796562195 0.6804999709129333 0.3230319917201996 0.6577000021934509
          0.13271799683570862 -0.17899900674819946 -0.974856972694397 0.7768800258636475 0.4927160143852234 0.3920310139656067
          0.6257709860801697 0.4494050145149231 0.6375309824943542 0.729108989238739 0.6794630289077759 -0.08203600347042084
          0.8003230094909668 0.5377780199050903 0.26510000228881836 0.6830419898033142 0.4372749924659729 0.5850170254707336
          0.8199009895324707 0.5542449951171875 -0.14343999326229095 0.17336499691009521 -0.211217999458313 -0.9619420170783997
          0.2575399875640869 -0.19175000488758087 -0.9470509886741638 0.42493700981140137 -0.19311000406742096 -0.8843849897384644