<?xml version="1.0"?>
<VTKFile type="PolyData" version="0.1" byte_order="LittleEndian" header_type="UInt32" compressor="vtkZLibDataCompressor">
  <PolyData>
    <Piece NumberOfPoints="1133" NumberOfVerts="0" NumberOfLines="0" NumberOfStrips="0" NumberOfPolys="2262">
      <PointData Normals="Normals">
        <DataArray type="Float32" Name="Normals" NumberOfComponents="3" format="ascii" RangeMin="0.9999993010936925" RangeMax="1.0000006875480216">
          0.23492300510406494 -0.18706999719142914 -0.9538429975509644 0.20871399343013763 -0.20460300147533417 -0.9563350081443787
          0.21684099733829498 -0.216607004404068 -0.9518730044364929 0.11171700060367584 -0.16805399954319 -0.9794269800186157
          0.14964400231838226 -0.1631450057029724 -0.9751870036125183 0.29774901270866394 -0.10751000046730042 -0.9485710263252258
          0.1940319985151291 -0.24437099695205688 -0.9500709772109985 0.11302000284194946 -0.19839900732040405 -0.9735829830169678
          0.11569199711084366 -0.24477599561214447 -0.9626529812812805 0.08628100156784058 -0.1800049990415573 -0.9798740148544312
          0.3015829920768738 -0.19760000705718994 -0.9327390193939209 0.2044149935245514 -0.2041890025138855 -0.95735102891922
          0.08273400366306305 -0.17984400689601898 -0.98021000623703 0.27472999691963196 -0.24613000452518463 -0.929485023021698
          0.2851310074329376 -0.2607550024986267 -0.9223380088806152 0.19003500044345856 -0.2905910015106201 -0.9377859830856323
          0.21782800555229187 -0.11367800086736679 -0.9693440198898315 -0.020659999921917915 -0.1823749989271164 -0.9830120205879211
          -0.07735099643468857 -0.1753319948911667 -0.9814659953117371 0.01726900041103363 -0.21203899383544922 -0.9771090149879456
          0.3176630139350891 -0.08860799670219421 -0.9440540075302124 -0.10944300144910812 -0.2477409988641739 -0.9626250267028809
          0.02507999911904335 -0.17075499892234802 -0.9849939942359924 0.13420900702476501 -0.2976579964160919 -0.9451919794082642
          0.057642001658678055 -0.23072899878025055 -0.9713090062141418 0.06291300058364868 -0.28401800990104675 -0.9567530155181885
          0.8363549709320068 -0.10575000196695328 -0.5378919839859009 0.14334499835968018 -0.2207919955253601 -0.9647300243377686
          0.24403299391269684 -0.15843899548053741 -0.9567369818687439 0.33594098687171936 -0.10888099670410156 -0.9355689883232117
          0.7482939958572388 -0.08946499973535538 -0.6573070287704468 0.017402999103069305 -0.1566620022058487 -0.9874989986419678
          0.22141100466251373 -0.27211499214172363 -0.9364460110664368 0.1762399971485138 -0.325300008058548 -0.9290419816970825
          0.27731698751449585 -0.27373000979423523 -0.920960009098053 0.12849999964237213 -0.15908999741077423 -0.9788659811019897
          0.11547300219535828 -0.12234800308942795 -0.9857469797134399 0.29904401302337646 -0.06447000056505203 -0.9520589709281921
          0.12165199965238571 -0.19390200078487396 -0.9734489917755127 0.09585800021886826 -0.24012699723243713 -0.9659969806671143
          0.05757300183176994 -0.16106100380420685 -0.985264003276825 0.13095299899578094 -0.16125699877738953 -0.9781860113143921
          -0.023885000497102737 -0.2996929883956909 -0.9537370204925537 -0.17853699624538422 -0.23816299438476562 -0.9546740055084229
          -0.10317499935626984 -0.2503710091114044 -0.9626370072364807 -0.18062199652194977 -0.29360300302505493 -0.9387080073356628
          -0.19693900644779205 -0.1946749985218048 -0.960893988609314 0.04818199947476387 -0.32018500566482544 -0.9461290240287781
          0.1764950007200241 -0.2682799994945526 -0.947035014629364 0.9499120116233826 -0.048204001039266586 -0.3087790012359619
          0.3365190029144287 -0.24027299880981445 -0.9105079770088196 0.3091840147972107 -0.1657630056142807 -0.9364439845085144
          0.2559660077095032 -0.14167200028896332 -0.9562479853630066 0.6299149990081787 -0.07403399795293808 -0.773127019405365
          0.6841819882392883 -0.14322200417518616 -0.7151100039482117 0.6838870048522949 -0.06318199634552002 -0.7268469929695129
          0.755266010761261 0.024163000285625458 -0.6549729704856873 0.16429699957370758 -0.23711900413036346 -0.9574869871139526
          0.21291199326515198 -0.2724300026893616 -0.9383230209350586 0.45840099453926086 -0.1803330034017563 -0.8702579736709595
          0.4962550103664398 -0.18809400498867035 -0.847557008266449 0.10728300362825394 -0.2188899964094162 -0.96983402967453
          0.29992198944091797 -0.09798099845647812 -0.9489189982414246 -0.1589280068874359 -0.1675579994916916 -0.9729679822921753
          0.05036799982190132 -0.12614500522613525 -0.9907320141792297 0.2490130066871643 -0.07029099762439728 -0.9659460186958313
          -0.20371100306510925 -0.18088999390602112 -0.9621750116348267 0.36187100410461426 -0.04932999983429909 -0.9309219717979431
          0.4136529862880707 -0.19039499759674072 -0.8903040289878845 0.1346299946308136 -0.2530600130558014 -0.9580370187759399
          0.14400599896907806 -0.17765900492668152 -0.9734990000724792 0.4791620075702667 -0.151201993227005 -0.8646050095558167
          0.012601000256836414 -0.31889599561691284 -0.9477059841156006 -0.08705099672079086 -0.30368900299072266 -0.9487860202789307
          -0.036577001214027405 -0.3505379855632782 -0.9358339905738831 -0.062463998794555664 -0.32046300172805786 -0.9451990127563477
          -0.07053700089454651 -0.25136899948120117 -0.9653180241584778 -0.16526199877262115 -0.25101399421691895 -0.9537720084190369
          -0.03412400186061859 -0.2280759960412979 -0.9730449914932251 -0.0443819984793663 -0.24734100699424744 -0.9679120182991028
          -0.12860199809074402 -0.20976600050926208 -0.9692569971084595 -0.22373700141906738 -0.22520099580287933 -0.9482750296592712
          0.0906279981136322 -0.25723400712013245 -0.962090015411377 0.22835500538349152 -0.2147890031337738 -0.9495890140533447
          0.4357660114765167 -0.192889004945755 -0.879148006439209 0.475849986076355 -0.2299090027809143 -0.8489450216293335
          0.8593050241470337 -0.07775100320577621 -0.5055189728736877 0.915207028388977 -0.05984000116586685 -0.3985159993171692
          0.8203380107879639 -0.0334790013730526 -0.5708990097045898 0.8762239813804626 -0.10439199954271317 -0.47046101093292236
          0.9028180241584778 -0.067112997174263 -0.42475301027297974 0.6907659769058228 -0.14236100018024445 -0.7089250087738037
          0.9623159766197205 0.0528159998357296 -0.26675501465797424 0.9113579988479614 -0.0014560000272467732 -0.41161099076271057
          0.9345660209655762 0.035220999270677567 -0.3540419936180115 0.2237740010023117 -0.2439340054988861 -0.9436209797859192
          0.10160300135612488 -0.043095000088214874 -0.9938910007476807 0.17604799568653107 -0.148717999458313 -0.9730830192565918
          0.3618119955062866 -0.2526639997959137 -0.8973590135574341 0.22465400397777557 -0.17707300186157227 -0.9582149982452393
          0.5592219829559326 -0.1592389941215515 -0.8135809898376465 0.5345990061759949 -0.10681000351905823 -0.838329017162323
          0.3367150127887726 -0.11975699663162231 -0.9339600205421448 0.36243000626564026 0.020635999739170074 -0.9317820072174072
          0.3813619911670685 -0.02191700041294098 -0.9241660237312317 -0.1575929969549179 -0.15356899797916412 -0.9754899740219116
          -0.34114500880241394 -0.20683200657367706 -0.9169740080833435 -0.35460400581359863 -0.15985000133514404 -0.9212509989738464
          0.18220199644565582 -0.08578900247812271 -0.979511022567749 0.7427380084991455 -0.1071690022945404 -0.6609500050544739
          0.8705570101737976 -0.09514500200748444 -0.4827820062637329 0.7183570265769958 -0.12024799734354019 -0.6852030158042908
          0.8864229917526245 -0.014740999788045883 -0.46264100074768066 -0.052932001650333405 -0.27555400133132935 -0.9598270058631897
          -0.054304998368024826 -0.3103660047054291 -0.9490650296211243 -0.15577399730682373 -0.3209800124168396 -0.9341869950294495
          -0.15458300709724426 -0.3815859854221344 -0.9113159775733948 -0.17045700550079346 -0.31411099433898926 -0.9339579939842224
          -0.1333879977464676 -0.2522220015525818 -0.9584320187568665 -0.04801600053906441 -0.2643910050392151 -0.9632200002670288
          -0.13066700100898743 -0.24172799289226532 -0.9615060091018677 -0.1155799999833107 -0.2702159881591797 -0.9558370113372803
          0.009188000112771988 -0.22603200376033783 -0.9740769863128662 0.046229999512434006 -0.21264700591564178 -0.9760349988937378
          -0.2804040014743805 -0.2265769988298416 -0.9327579736709595 -0.11099299788475037 -0.24859100580215454 -0.962228000164032
          -0.06978099793195724 -0.25308099389076233 -0.9649249911308289 0.03384799882769585 -0.14525100588798523 -0.9888160228729248
          0.7799299955368042 -0.12268500030040741 -0.6137250065803528 0.390641987323761 -0.17320099472999573 -0.9041020274162292
          0.8665059804916382 -0.1245570033788681 -0.48337700963020325 0.9964380264282227 0.03932800143957138 -0.07459399849176407
          0.9964050054550171 0.07767599821090698 -0.03382299840450287 0.9861099720001221 -0.03023100085556507 -0.16332100331783295
          0.9964579939842224 -0.03520900011062622 -0.07637099921703339 0.9991000294685364 0.0009730000165291131 -0.042406998574733734
          0.9688199758529663 -0.04259299859404564 -0.24407799541950226 0.7871689796447754 -0.028060000389814377 -0.6160989999771118
          0.897936999797821 -0.04195600003004074 -0.4381200075149536 0.9883859753608704 0.009371999651193619 -0.15167400240898132
          0.9681130051612854 -0.07217799872159958 -0.23989200592041016 0.9982770085334778 0.024349000304937363 0.05339299887418747
          0.3606249988079071 -0.21634900569915771 -0.9072719812393188 0.29416701197624207 -0.1037760004401207 -0.9501029849052429
          0.07899799942970276 0.4420270025730133 -0.893517017364502 0.007631000131368637 0.19934600591659546 -0.9799000024795532
          0.18366700410842896 0.10866399854421616 -0.976963996887207 0.23022900521755219 0.08046100288629532 -0.9698050022125244
          0.15074199438095093 0.2186030000448227 -0.9641000032424927 0.1994200050830841 0.060297999531030655 -0.9780570268630981
          0.4994550049304962 -0.08996900171041489 -0.8616560101509094 0.7197459936141968 0.0036700000055134296 -0.6942279934883118
          0.557325005531311 0.11009799689054489 -0.8229619860649109 0.604354977607727 -0.0697999969124794 -0.7936519980430603
          0.2643449902534485 0.05951299890875816 -0.9625899791717529 0.25436100363731384 0.03542099893093109 -0.9664599895477295
          0.3712170124053955 0.12001799792051315 -0.920756995677948 0.28752601146698 -0.013655999675393105 -0.9576749801635742
          -0.27274298667907715 -0.1722639948129654 -0.9465389847755432 -0.11599700152873993 -0.13210399448871613 -0.9844250082969666
          -0.3848310112953186 -0.19390900433063507 -0.9023879766464233 -0.3505899906158447 -0.22373999655246735 -0.9094099998474121
          -0.2553499937057495 -0.23554199934005737 -0.9377189874649048 -0.3176029920578003 -0.11086200177669525 -0.9417210221290588
          -0.3756279945373535 -0.14534500241279602 -0.9153019785881042 0.06379599869251251 -0.0761599987745285 -0.9950529932975769
          0.794713020324707 -0.0552310012280941 -0.6044679880142212 0.9875779747962952 0.04206300154328346 -0.15139299631118774
          0.9717680215835571 0.026569999754428864 -0.2344380021095276 -0.058031000196933746 -0.26525500416755676 -0.9624300003051758
          -0.27236801385879517 -0.3186649978160858 -0.9078919887542725 -0.2068530023097992 -0.3117710053920746 -0.9273679852485657
          -0.17579899728298187 -0.3588789999485016 -0.9166790246963501 -0.23891599476337433 -0.37977099418640137 -0.8936960101127625
          -0.14696499705314636 -0.1573909968137741 -0.9765390157699585 -0.2274709939956665 -0.09384900331497192 -0.9692519903182983
          -0.1714559942483902 -0.3470050096511841 -0.9220579862594604 -0.14813099801540375 -0.16196900606155396 -0.9756140112876892
          -0.11682199686765671 -0.2556990087032318 -0.9596719741821289 -0.03315899893641472 -0.18825900554656982 -0.9815599918365479
          -0.09904199838638306 -0.22143399715423584 -0.9701330065727234 -0.008144999854266644 -0.23675499856472015 -0.9715350270271301
          -0.2429870069026947 -0.31064099073410034 -0.9189450144767761 0.04840400069952011 -0.24603399634361267 -0.9680520296096802
          -0.2178799957036972 -0.3560200035572052 -0.908722996711731 0.12396500259637833 -0.1770009994506836 -0.976373016834259
          -0.20435300469398499 -0.23547600209712982 -0.9501529932022095 -0.15886500477790833 0.10089100152254105 -0.9821320176124573
          0.15818800032138824 -0.06498400121927261 -0.9852679967880249 0.15494200587272644 -0.22206099331378937 -0.962643027305603
          -0.04665600135922432 0.14017300307750702 -0.9890270233154297 0.12029799818992615 0.18190500140190125 -0.9759299755096436
          0.7583780288696289 -0.1302099972963333 -0.6386770009994507 0.9713709950447083 0.0726580023765564 0.22618499398231506
          0.9932330250740051 0.01451599970459938 0.1152229979634285 0.9726979732513428 0.03818599879741669 0.22890999913215637
          0.9955670237541199 -0.02741900086402893 -0.08997400104999542 0.9956380128860474 0.01349399983882904 -0.09231799840927124
          0.9381960034370422 0.08093000203371048 -0.33650800585746765 0.989022970199585 0.12695400416851044 0.0756089985370636
          0.8722040057182312 0.09740500152111053 -0.47934699058532715 0.9937919974327087 0.0007730000070296228 0.11124899983406067
          0.9985730051994324 -0.05241499841213226 0.010200000368058681 0.9670799970626831 0.05033000186085701 0.24944600462913513
          0.4128910005092621 0.12166900187730789 -0.9026169776916504 0.13906000554561615 0.5186200141906738 -0.843621015548706
          0.1271820068359375 0.7737910151481628 -0.6205419898033142 0.17373399436473846 0.7694870233535767 -0.6145780086517334
          0.17297300696372986 0.5111690163612366 -0.8418939709663391 0.02019999921321869 0.7886940240859985 -0.6144539713859558
          0.31296899914741516 0.41288700699806213 -0.8553209900856018 0.19043999910354614 0.22004100680351257 -0.9567210078239441
          0.5526459813117981 0.10156600177288055 -0.8272039890289307 0.6282259821891785 0.15366999804973602 -0.7627040147781372
          0.7608389854431152 0.2094780057668686 -0.614201009273529 0.8950250148773193 0.26818200945854187 -0.3563840091228485
          0.6739680171012878 0.21551300585269928 -0.7066259980201721 0.911965012550354 0.04913400113582611 -0.4073159992694855
          0.8928689956665039 0.19532500207424164 -0.40574899315834045 0.1741899996995926 0.06793300062417984 -0.9823660254478455
          0.24884499609470367 0.09494700282812119 -0.9638779759407043 0.036118000745773315 -0.011385000310838223 -0.9992830157279968
          0.6717690229415894 0.24223899841308594 -0.7000340223312378 0.6146209836006165 0.15593299269676208 -0.7732570171356201
          0.34598299860954285 0.10166800022125244 -0.9327160120010376 -0.1749899983406067 -0.08325400203466415 -0.9810439944267273
          -0.3037860095500946 -0.31040099263191223 -0.9007580280303955 -0.42030999064445496 -0.38762998580932617 -0.8204159736633301
          -0.24211899936199188 -0.30939599871635437 -0.9195939898490906 -0.3964099884033203 -0.07721900194883347 -0.9148200154304504
          -0.37025099992752075 -0.03369000181555748 -0.9283210039138794 -0.5361980199813843 -0.09114299714565277 -0.839156985282898
          -0.6128690242767334 -0.14256900548934937 -0.7772169709205627 -0.5503829717636108 -0.2755480110645294 -0.7881320118904114
          -0.13439999520778656 -0.05114400014281273 -0.9896060228347778 0.9897930026054382 0.11767099797725677 0.08039099723100662
          0.9593179821968079 0.11698699742555618 0.25694799423217773 -0.22295300662517548 -0.2572630047798157 -0.9402700066566467
          -0.12340400367975235 -0.2569440007209778 -0.9585149884223938 -0.21758399903774261 -0.2185879945755005 -0.9512500166893005
          -0.2870199978351593 -0.25147899985313416 -0.9243260025978088 -0.25977298617362976 -0.35351499915122986 -0.8986350297927856
          -0.4818289875984192 -0.3170509934425354 -0.8168960213661194 -0.2857010066509247 -0.04345199838280678 -0.9573330283164978
          -0.07311800122261047 -0.14896699786186218 -0.9861350059509277 -0.226159006357193 0.07766799628734589 -0.9709889888763428
          -0.2197760045528412 0.13433699309825897 -0.9662569761276245 -0.33039599657058716 0.11726099997758865 -0.9365299940109253
          -0.2283480018377304 -0.16906100511550903 -0.9587889909744263 -0.16482999920845032 -0.2396479994058609 -0.9567649960517883
          -0.7006469964981079 -0.3889920115470886 -0.5981460213661194 -0.6071280241012573 -0.36233600974082947 -0.7071830034255981
          -0.480540007352829 -0.36163100600242615 -0.7989400029182434 -0.10804799944162369 0.42528000473976135 -0.898589015007019
          -0.18418799340724945 0.4542999863624573 -0.8715999722480774 0.16134700179100037 0.40426498651504517 -0.900297999382019
          0.012281999923288822 0.30799400806427 -0.9513090252876282 0.08067099750041962 0.494581013917923 -0.8653789758682251
          0.8454620242118835 0.10842899978160858 0.5229120254516602 0.8903059959411621 0.07624100148677826 0.44893398880958557
          0.8986979722976685 0.012842999771237373 0.43838000297546387 0.9432830214500427 0.02332100085914135 0.3311690092086792
          0.9771919846534729 0.053950998932123184 0.20539100468158722 0.9866060018539429 0.12740999460220337 -0.10185900330543518
          0.9467849731445312 0.2467779964208603 -0.20663799345493317 0.9258589744567871 0.2581480145454407 -0.27594199776649475
          0.9047229886054993 0.21345899999141693 0.3686630129814148 0.8966370224952698 0.35504600405693054 0.2645460069179535
          0.9525259733200073 0.30161499977111816 0.04151900112628937 0.9737160205841064 -0.030789999291300774 0.22567400336265564
          0.9197270274162292 -0.02080399915575981 0.3920069932937622 0.875236988067627 0.057635001838207245 0.48024898767471313
          0.8375830054283142 0.04963599890470505 0.5440509915351868 0.47762200236320496 0.3493730127811432 -0.8061119914054871
          0.18993499875068665 0.8064770102500916 -0.5599279999732971 0.18795399367809296 0.8514140248298645 -0.48966100811958313
          0.13823199272155762 0.9558039903640747 -0.25947999954223633 0.11848200112581253 0.7242820262908936 -0.6792479753494263
          0.3153580129146576 0.9489549994468689 -0.0058200000785291195 0.12488699704408646 0.7797889709472656 -0.6134589910507202
          0.30069699883461 0.8080350160598755 -0.50661700963974 -0.006748000159859657 0.6532390117645264 -0.7571210265159607
          0.09243600070476532 0.9440919756889343 -0.31645798683166504 0.2807430028915405 0.7028800249099731 -0.6535620093345642
          0.37389498949050903 0.5573670268058777 -0.7413120269775391 0.5484820008277893 0.4698430001735687 -0.6916760206222534
          0.6697189807891846 0.3607490062713623 -0.6491039991378784 0.7471089959144592 0.42467400431632996 -0.5113499760627747
          0.9182379841804504 0.39319801330566406 -0.04726700112223625 0.8142449855804443 0.5789570212364197 -0.042583998292684555
          0.822359025478363 0.5415880084037781 -0.17437799274921417 0.8875700235366821 0.240338996052742 -0.3930090069770813
          0.9785820245742798 0.15958000719547272 0.13004599511623383 0.993507981300354 0.10414499789476395 0.045779999345541
          0.9717900156974792 0.23534999787807465 -0.015333999879658222 -0.059137001633644104 -0.03853999823331833 -0.9975060224533081
          -0.018523000180721283 0.024985000491142273 -0.9995160102844238 0.30069199204444885 0.16004599630832672 -0.9401969909667969
          0.23149099946022034 0.16552500426769257 -0.9586520195007324 0.11958099901676178 0.0686660036444664 -0.9904469847679138
          -0.08967600017786026 -0.038203999400138855 -0.9952380061149597 0.7440630197525024 0.21264100074768066 -0.6333670020103455
          0.38454899191856384 0.2120559960603714 -0.8984180092811584 -0.25790199637413025 -0.04968700185418129 -0.9648929834365845
          -0.7044849991798401 -0.4449490010738373 -0.5529209971427917 -0.821927011013031 -0.3694179952144623 -0.43355101346969604
          -0.6448060274124146 -0.0005970000056549907 -0.7643460035324097 -0.5263770222663879 0.05703999847173691 -0.8483359813690186
          -0.28544801473617554 -0.012271000072360039 -0.9583160281181335 -0.762781023979187 -0.16142800450325012 -0.6261839866638184
          -0.8320009708404541 -0.10822500288486481 -0.5441160202026367 -0.8316760063171387 -0.21073099970817566 -0.5137190222740173
          -0.8946099877357483 -0.3213619887828827 -0.310481995344162 -0.1925320029258728 0.04240399971604347 -0.9803739786148071
          0.938854992389679 0.1344269961118698 0.3169879913330078 -0.5368580222129822 -0.30852198600769043 -0.7852380275726318
          -0.510873019695282 -0.30564001202583313 -0.80348801612854 -0.5180060267448425 -0.3253780007362366 -0.7910749912261963
          -0.6812670230865479 -0.3172599971294403 -0.6597129702568054 -0.732342004776001 -0.32927998900413513 -0.5960279703140259
          -0.3201110064983368 -0.18817099928855896 -0.9285039901733398 -0.4267750084400177 -0.30026599764823914 -0.8530550003051758
          -0.4574289917945862 -0.33076098561286926 -0.8254430294036865 -0.652193009853363 -0.29874399304389954 -0.6967039704322815
          -0.601269006729126 -0.2680020034313202 -0.7527620196342468 -0.206045001745224 0.08637399971485138 -0.9747229814529419
          -0.3269999921321869 0.3957130014896393 -0.8581860065460205 -0.3406910002231598 0.346763014793396 -0.8738909959793091
          -0.4181869924068451 0.062348999083042145 -0.9062190055847168 -0.8656889796257019 -0.4201219975948334 -0.27217599749565125
          -0.9275609850883484 -0.3620089888572693 -0.09262900054454803 -0.8960509896278381 -0.3389120101928711 -0.28676098585128784
          -0.8673269748687744 -0.3704099953174591 -0.3324739933013916 -0.7638720273971558 -0.3887859880924225 -0.5151159763336182
          -0.25560298562049866 0.6746670007705688 -0.6924530267715454 0.7240579724311829 0.1023939996957779 0.682096004486084
          0.8514260053634644 0.1429940015077591 0.5046060085296631 0.6861010193824768 0.07823099941015244 0.7232869863510132
          0.6147739887237549 0.08020199835300446 0.7846149802207947 0.6922339797019958 0.11906299740076065 0.7117840051651001
          0.6752650141716003 0.12504400312900543 0.7268990278244019 0.6895099878311157 0.12467599660158157 0.7134649753570557
          0.8116649985313416 0.024277999997138977 0.5836179852485657 0.9473569989204407 0.03770599886775017 0.3179509937763214
          0.8399779796600342 0.13058599829673767 0.5266720056533813 0.8269109725952148 0.33697599172592163 0.4501839876174927
          0.8557900190353394 0.44901999831199646 0.2569130063056946 0.9219639897346497 0.007933000102639198 0.3871929943561554
          0.7704070210456848 0.05590299889445305 0.6350970268249512 0.9372349977493286 0.023027999326586723 0.3479369878768921
          0.6394979953765869 0.02776000089943409 0.7682909965515137 0.6876890063285828 0.09603500366210938 0.7196260094642639
          0.6852250099182129 0.07453899830579758 0.7245069742202759 0.6330450177192688 0.06253200024366379 0.7715849876403809
          0.1110759973526001 0.9910640120506287 -0.07384900003671646 0.25469499826431274 0.9076899886131287 -0.33351200819015503
          0.09993699938058853 0.9542869925498962 0.2816910147666931 0.06768099963665009 0.9957240223884583 0.06287699937820435
          -0.1172889992594719 0.7618809938430786 -0.6370099782943726 0.08428599685430527 0.9082639813423157 0.40981900691986084
          0.36933401226997375 0.8598080277442932 0.35259300470352173 0.3421050012111664 0.8692589998245239 0.3568649888038635
          0.1256060004234314 0.920261025428772 0.37059900164604187 0.22463400661945343 0.9182720184326172 -0.32606199383735657
          0.2753649950027466 0.9549909830093384 0.11029800027608871 -0.04922499880194664 0.9172829985618591 -0.3951820135116577
          0.3604640066623688 0.7954300045967102 -0.4871929883956909 0.5443909764289856 0.7038580179214478 -0.45631399750709534
          0.7300620079040527 0.5700039863586426 -0.37696799635887146 0.7739109992980957 0.6203539967536926 0.12736700475215912
          0.6274470090866089 0.7752839922904968 0.07243099808692932 0.642865002155304 0.7557929754257202 -0.12450800091028214
          0.9665619730949402 0.23986800014972687 -0.09067399799823761 0.8830710053443909 0.15474900603294373 0.44298699498176575
          0.9092249870300293 0.17748799920082092 0.3765749931335449 -0.04624199867248535 0.04629699885845184 -0.9978569746017456
          0.054770998656749725 0.1057019978761673 -0.9928879737854004 -0.07587599754333496 0.11241599917411804 -0.9907600283622742
          0.17756299674510956 0.23882700502872467 -0.9546899795532227 0.7286850214004517 0.3015199899673462 -0.6149010062217712
          0.9603700041770935 0.277989000082016 0.02026900090277195 0.39744800329208374 0.27653300762176514 -0.8749650120735168
          -0.9342290163040161 -0.35666999220848083 -0.0016700000269338489 -0.8771020174026489 -0.4420729875564575 -0.18778300285339355
          -0.9492909908294678 -0.3121210038661957 -0.03778500109910965 -0.9413170218467712 -0.3328630030155182 -0.05590000003576279
          -0.9389299750328064 -0.0168869998306036 -0.3436940014362335 -0.39656099677085876 0.12142299860715866 -0.9099429845809937
          -0.8712859749794006 0.06958799809217453 -0.48581698536872864 -0.9156860113143921 -0.19220900535583496 -0.3529520034790039
          -0.9879159927368164 -0.10331100225448608 -0.11553499847650528 -0.9794710278511047 -0.1780110001564026 -0.09459999948740005
          -0.9566500186920166 -0.2420780062675476 -0.16192500293254852 -0.9515020251274109 -0.24380099773406982 0.18762899935245514
          -0.157368004322052 0.19435299932956696 -0.9682260155677795 -0.2270050048828125 0.17308099567890167 -0.9583899974822998
          -0.8433579802513123 -0.3206019997596741 -0.4312329888343811 -0.8533660173416138 -0.3376300036907196 -0.39720600843429565
          -0.8151729702949524 -0.33725300431251526 -0.47090598940849304 -0.8696939945220947 -0.3520439863204956 -0.34597301483154297
          -0.9445210099220276 -0.22768600285053253 -0.23672500252723694 -0.88230299949646 -0.29694899916648865 -0.36518800258636475
          -0.9172890186309814 -0.32680198550224304 -0.22755500674247742 -0.7958719730377197 -0.25242701172828674 -0.5503339767456055
          -0.5445629954338074 -0.146915003657341 -0.8257520198822021 -0.7479869723320007 -0.11196500062942505 -0.6542009711265564
          -0.32445600628852844 0.19443200528621674 -0.9257019758224487 -0.3205240070819855 0.40364500880241394 -0.8569340109825134
          -0.384550005197525 0.5448819994926453 -0.7451339960098267 -0.43377700448036194 0.6207720041275024 -0.6530550122261047
          -0.442654013633728 0.5261269807815552 -0.7261180281639099 -0.5782909989356995 0.13059000670909882 -0.8053110241889954
          -0.6624190211296082 0.03040199913084507 -0.7485169768333435 -0.3717780113220215 0.42398199439048767 -0.8258450031280518
          -0.5007330179214478 0.26540300250053406 -0.8239099979400635 -0.933135986328125 -0.3508419990539551 0.0785290002822876
          -0.9140470027923584 -0.280705988407135 0.29278498888015747 -0.9344729781150818 -0.33459800481796265 -0.12167499959468842
          -0.9241440296173096 -0.3226819932460785 0.20453299582004547 -0.35488200187683105 0.7675909996032715 -0.5337259769439697
          -0.3924739956855774 0.7144719958305359 -0.5792189836502075 0.729498028755188 0.08953800052404404 0.6780980229377747
          0.5220419764518738 0.09219600260257721 0.8479220271110535 0.5327979922294617 0.11095999926328659 0.8389359712600708
          0.6803789734840393 0.10147599875926971 0.7258009910583496 0.3418070077896118 0.10409700125455856 0.933987021446228
          0.49528399109840393 0.08996299654245377 0.8640599846839905 0.4508480131626129 0.0751039981842041 0.8894360065460205
          0.4704729914665222 0.11608900129795074 0.8747450113296509 0.9409030079841614 -0.0004600000102072954 0.33867698907852173
          0.8829010128974915 0.04392499849200249 0.4675010144710541 0.8578550219535828 0.09296800196170807 0.5054119825363159
          0.7738680243492126 0.11005999892950058 0.6237099766731262 0.8171219825744629 0.05717800185084343 0.5736219882965088
          0.7550259828567505 0.16241100430488586 0.6352630257606506 0.8524060249328613 0.3833079934120178 0.3556379973888397
          0.7917569875717163 0.3916980028152466 0.46871399879455566 0.761775016784668 0.6280009746551514 0.1591009944677353
          0.7548210024833679 0.6417210102081299 0.13578900694847107 0.9763150215148926 0.01475400011986494 0.21585200726985931
          0.9629600048065186 0.05327000096440315 0.26433101296424866 0.5751640200614929 0.0453060008585453 0.8167830109596252
          0.6736149787902832 0.0334790013730526 0.738323986530304 0.6825929880142212 0.03951200097799301 0.7297289967536926
          0.5610830187797546 0.0029990000184625387 0.827754020690918 0.5858240127563477 0.0432329997420311 0.809283971786499
          0.5810089707374573 -0.0028570001013576984 0.8138920068740845 0.6693810224533081 0.007864000275731087 0.7428780198097229
          0.5904070138931274 0.062070999294519424 0.8047149777412415 0.29081299901008606 0.9548519849777222 -0.06069900095462799
          -0.035698000341653824 0.9446769952774048 0.32605400681495667 0.14341099560260773 0.9859089851379395 0.0861160010099411
          -0.34154701232910156 0.8872609734535217 -0.3100219964981079 0.25648999214172363 0.9033219814300537 0.3438360095024109