<?xml version="1.0"?>
<VTKFile type="PolyData" version="0.1" byte_order="LittleEndian" header_type="UInt32" compressor="vtkZLibDataCompressor">
  <PolyData>
    <Piece NumberOfPoints="1321" NumberOfVerts="0" NumberOfLines="0" NumberOfStrips="0" NumberOfPolys="2638">
      <PointData Normals="Normals">
        <DataArray type="Float32" Name="Normals" NumberOfComponents="3" format="ascii" RangeMin="0.9999992770985975" RangeMax="1.000000777320386">
          -0.4460369944572449 -0.8687909841537476 0.21506500244140625 -0.3852759897708893 -0.920744001865387 0.06159399822354317
          -0.26642099022865295 -0.8386539816856384 0.4750570058822632 -0.3749600052833557 -0.8411660194396973 0.38967299461364746
          -0.4947429895401001 -0.8671939969062805 -0.05660099908709526 -0.4984799921512604 -0.8636019825935364 -0.07555299997329712
          -0.14869099855422974 -0.9872890114784241 0.05612900108098984 -0.31342899799346924 -0.9266499876976013 -0.20756100118160248
          -0.1775590032339096 -0.5090659856796265 0.8422139883041382 -0.25863000750541687 -0.5426920056343079 0.7991219758987427
          -0.10267200320959091 -0.824321985244751 0.5567330121994019 -0.1412629932165146 -0.8823429942131042 0.44890400767326355
          -0.29312101006507874 -0.535207986831665 0.7922329902648926 -0.42390498518943787 -0.5964959859848022 0.6815400123596191
          -0.4968760013580322 -0.8256790041923523 0.2671490013599396 -0.27987799048423767 -0.9110910296440125 -0.302623987197876
          -0.3787199854850769 -0.8627369999885559 -0.33504799008369446 -0.6525840163230896 -0.7513139843940735 0.09829200059175491
          -0.5850939750671387 -0.7920010089874268 -0.17435400187969208 -0.030757000669836998 -0.9754359722137451 0.21812699735164642
          0.040132999420166016 -0.9715189933776855 -0.23353900015354156 -0.08724100142717361 -0.9502440094947815 -0.2990410029888153
          -0.17492300271987915 -0.18234899640083313 0.9675490260124207 -0.13940900564193726 -0.17327100038528442 0.9749569892883301
          -0.08597099781036377 -0.4605709910392761 0.8834499716758728 -0.20050400495529175 -0.20412099361419678 0.9581930041313171
          -0.07733199745416641 -0.9121130108833313 0.4025779962539673 -0.00878200028091669 -0.7526040077209473 0.6584150195121765
          -0.00019999999494757503 -0.985027015209198 0.17240199446678162 -0.001155999954789877 -0.9785429835319519 0.20603999495506287
          -0.27660199999809265 -0.22880999743938446 0.9333469867706299 -0.6064550280570984 -0.5690280199050903 0.5553550124168396
          -0.4659759998321533 -0.278331995010376 0.8398789763450623 0.0655599981546402 -0.9526910185813904 -0.29678699374198914
          -0.11537399888038635 -0.9348850250244141 -0.33567699790000916 -0.4207940101623535 -0.8668519854545593 -0.2673960030078888
          -0.7507969737052917 -0.4992530047893524 0.4324919879436493 -0.7107980251312256 -0.6861069798469543 0.15499599277973175
          -0.581413984298706 -0.8122820258140564 -0.04642900079488754 -0.06600099802017212 -0.9555839896202087 -0.28723299503326416
          -0.06618700176477432 -0.9654499888420105 -0.2520419955253601 -0.11213299632072449 0.029891999438405037 0.9932429790496826
          -0.08482600003480911 0.0370509997010231 0.9957069754600525 -0.052000999450683594 -0.17056599259376526 0.9839730262756348
          -0.06504099816083908 -0.0046629998832941055 0.997871994972229 0.01895499974489212 -0.39616701006889343 0.9179829955101013
          -0.13149400055408478 0.01874700002372265 0.9911400079727173 0.12721900641918182 -0.6440079808235168 0.7543659806251526
          0.11447899788618088 -0.93162602186203 0.3449169993400574 0.08149400353431702 -0.994674026966095 -0.06310900300741196
          -0.2696230113506317 -0.04261799901723862 0.9620230197906494 -0.6529650092124939 -0.3677639961242676 0.6621080040931702
          -0.5297920107841492 -0.22110900282859802 0.8187990188598633 0.0012789999600499868 -0.9683330059051514 -0.24965800344944
          -0.021114999428391457 -0.873458981513977 -0.4864400029182434 -0.27074500918388367 -0.8708969950675964 -0.4101659953594208
          -0.5003880262374878 -0.832243025302887 -0.23871099948883057 -0.7519339919090271 -0.49077901244163513 0.4401499927043915
          -0.6775220036506653 -0.5083680152893066 0.5315319895744324 -0.6261420249938965 -0.7484880089759827 0.2184319943189621
          -0.5478150248527527 -0.8347309827804565 -0.05589200183749199 0.02085600048303604 -0.9405919909477234 -0.3388980031013489
          -0.059073999524116516 -0.9517970085144043 -0.3009850084781647 -0.0064650001004338264 0.16390399634838104 0.9864550232887268
          -0.1610500067472458 0.20436100661754608 0.9655569791793823 -0.007770000025629997 0.03281699866056442 0.9994310140609741
          0.05761700123548508 -0.17293299734592438 0.9832469820976257 0.1251640021800995 -0.2891019880771637 0.9490810036659241
          -0.2274640053510666 0.11638099700212479 0.9668070077896118 0.2834469974040985 -0.5170770287513733 0.8076440095901489
          0.40108299255371094 -0.7590960264205933 0.5127429962158203 0.3401699960231781 -0.9339039921760559 0.11003699898719788
          0.3561280071735382 -0.9185199737548828 -0.1717360019683838 -0.4148330092430115 -0.03509499877691269 0.9092199802398682
          -0.6133450269699097 -0.17880800366401672 0.7693089842796326 0.028349999338388443 -0.8470020294189453 -0.5308330059051514
          0.059852998703718185 -0.8737199902534485 -0.48273301124572754 -0.10081800073385239 -0.8352530002593994 -0.5405430197715759
          0.031227000057697296 -0.7065250277519226 -0.7069990038871765 -0.38776400685310364 -0.7716519832611084 -0.5041750073432922
          -0.6041010022163391 -0.7335969805717468 -0.3112820088863373 -0.7104210257530212 -0.46047601103782654 0.532226026058197
          -0.660959005355835 -0.7139729857444763 0.23103199899196625 -0.6324170231819153 -0.7744619846343994 -0.01603199914097786
          -0.6120129823684692 -0.7409729957580566 -0.27640300989151 0.24226799607276917 -0.8693640232086182 -0.4307110011577606
          0.36504098773002625 -0.849265992641449 -0.38143399357795715 -0.02439800091087818 0.18378299474716187 0.9826639890670776
          -0.12133800238370895 0.21206900477409363 0.9696930050849915 0.06215500086545944 0.20941099524497986 0.975849986076355
          -0.35362499952316284 0.2826870083808899 0.8916490077972412 -0.26858699321746826 0.3763830065727234 0.8866770267486572
          -0.3603299856185913 0.13653500378131866 0.9227790236473083 -0.2280620038509369 0.31331101059913635 0.9218590259552002
          0.08442399650812149 0.10955099761486053 0.9903889894485474 -0.08195000141859055 0.1481339931488037 0.9855660200119019
          0.18577000498771667 -0.13255199790000916 0.9736120104789734 0.2691519856452942 -0.3197939991950989 0.9084540009498596
          -0.4352250099182129 0.018893999978899956 0.9001230001449585 0.39722299575805664 -0.45777198672294617 0.795399010181427
          0.560064971446991 -0.8106340169906616 0.17087799310684204 0.5171599984169006 -0.6284760236740112 0.5810019969940186
          0.527899980545044 -0.836887001991272 -0.14471299946308136 -0.6237620115280151 -0.05041300132870674 0.7799869775772095
          -0.8046000003814697 -0.24250200390815735 0.542044997215271 0.11355999857187271 -0.7028579711914062 -0.7022070288658142
          0.21932999789714813 -0.8046839833259583 -0.551705002784729 -0.11499100178480148 -0.6941930055618286 -0.7105439901351929
          0.06747599691152573 -0.6236540079116821 -0.7787830233573914 -0.06818699836730957 -0.5431489944458008 -0.8368629813194275
          -0.01792600005865097 -0.5315030217170715 -0.846867024898529 -0.4011949896812439 -0.5865960121154785 -0.7035250067710876
          -0.6525909900665283 -0.5857809782028198 -0.4806100130081177 -0.7708680033683777 -0.5303320288658142 -0.3528609871864319
          -0.8331729769706726 -0.49764400720596313 0.24119000136852264 -0.7613199949264526 -0.6347039937973022 -0.1324480026960373
          -0.7544500231742859 -0.5687029957771301 -0.32769298553466797 0.36761000752449036 -0.8278130292892456 -0.4237790107727051
          0.48195698857307434 -0.8235660195350647 -0.29909399151802063 0.05063299834728241 0.17524899542331696 0.9832209944725037
          -0.05941300094127655 0.19663700461387634 0.9786750078201294 0.10431300103664398 0.19823500514030457 0.9745879769325256
          0.07092499732971191 0.2767519950866699 0.9583209753036499 -0.43241700530052185 0.4609839916229248 0.7749260067939758
          -0.3893139958381653 0.2513999938964844 0.8861330151557922 -0.5764549970626831 0.3305799961090088 0.7472730278968811
          -0.351967990398407 0.4250119924545288 0.8339560031890869 -0.3464890122413635 0.40090999007225037 0.848065972328186
          -0.573477029800415 0.09269899874925613 0.8139600157737732 -0.4263960123062134 0.2659119963645935 0.8645679950714111
          0.12977400422096252 0.03649299964308739 0.9908720254898071 0.37234199047088623 -0.38920098543167114 0.8425459861755371
          0.24293899536132812 -0.15474900603294373 0.9576190114021301 0.5924239754676819 -0.7503319978713989 0.2933180034160614
          0.5665760040283203 -0.8226510286331177 -0.04730600118637085 0.5018740296363831 -0.5217469930648804 0.689857006072998
          0.47841399908065796 -0.4461919963359833 0.7563279867172241 -0.8730970025062561 -0.14561499655246735 0.4652929902076721
          -0.7534270286560059 0.023740999400615692 0.6571030020713806 -0.9240869879722595 -0.20568600296974182 0.32211199402809143
          -0.9415010213851929 -0.27800700068473816 0.19049300253391266 0.36294299364089966 -0.5602210164070129 -0.7445970177650452
          0.2635529935359955 -0.6888319849967957 -0.6753150224685669 0.09523999691009521 -0.6102870106697083 -0.78643399477005
          -0.2114180028438568 -0.5449129939079285 -0.8114020228385925 -0.23420700430870056 -0.4603700041770935 -0.8562750220298767
          0.07622700184583664 -0.5073400139808655 -0.8583679795265198 -0.0476979985833168 -0.40425899624824524 -0.9133999943733215
          -0.5201089978218079 -0.48322099447250366 -0.7042620182037354 -0.7726119756698608 -0.45402899384498596 -0.4437659978866577
          -0.8025299906730652 -0.45775100588798523 -0.38263601064682007 -0.9604690074920654 -0.2623029947280884 -0.09325200319290161
          -0.8858759999275208 -0.3786979913711548 -0.26797598600387573 -0.9118980169296265 -0.3354339897632599 -0.23648600280284882
          -0.8852570056915283 -0.46130800247192383 -0.05928799882531166 -0.9205710291862488 -0.3769559860229492 -0.10224200040102005
          0.6196879744529724 -0.7215049862861633 -0.308896005153656 0.4226509928703308 -0.6889700293540955 -0.5888010263442993
          0.6384249925613403 -0.7577409744262695 -0.13506299257278442 0.6062840223312378 -0.795212984085083 0.007486999966204166
          0.2187879979610443 -0.06452599912881851 0.9736369848251343 0.029874000698328018 0.16286200284957886 0.986195981502533
          0.22354799509048462 0.1766510009765625 0.9585509896278381 0.09407900273799896 0.2064480036497116 0.9739239811897278
          -0.10534799844026566 0.2538830041885376 0.961480975151062 0.19746699929237366 0.2267719954252243 0.953719973564148
          0.11196299642324448 0.2859640121459961 0.9516770243644714 0.34655898809432983 0.21209999918937683 0.9137340188026428
          0.1283629983663559 0.4509519934654236 0.8832700252532959 0.2796039879322052 0.33796900510787964 0.8986650109291077
          -0.6229410171508789 0.47700798511505127 0.6200060248374939 -0.5758069753646851 0.42570599913597107 0.6980119943618774
          -0.3571479916572571 0.2831040024757385 0.8901110291481018 -0.5825999975204468 0.2566629946231842 0.7711690068244934
          -0.7360360026359558 0.3483859896659851 0.580411970615387 -0.795527994632721 0.2626990079879761 0.5460079908370972
          -0.6356819868087769 0.25580599904060364 0.7283350229263306 0.21950200200080872 -0.11170300096273422 0.9691960215568542
          0.3905459940433502 -0.28626298904418945 0.8749439716339111 0.6519349813461304 -0.6546419858932495 0.38265499472618103
          0.33822399377822876 -0.25798100233078003 0.9050139784812927 0.5269749760627747 -0.4804159998893738 0.7010689973831177
          -0.9150310158729553 0.014775999821722507 0.40311199426651 -0.9824590086936951 -0.09789799898862839 0.15871599316596985
          -0.9879570007324219 -0.144896999001503 0.05428000167012215 0.3673439919948578 -0.5172880291938782 -0.7729629874229431
          0.8958140015602112 -0.24885399639606476 -0.36822301149368286 0.898006021976471 -0.25040099024772644 -0.36177900433540344
          0.2408449947834015 -0.5251610279083252 -0.8162099719047546 0.32992199063301086 -0.5739139914512634 -0.7495160102844238
          -0.26854899525642395 -0.5516939759254456 -0.7896299958229065 0.10741599649190903 -0.3884730041027069 -0.9151780009269714
          0.10767000168561935 -0.2627890110015869 -0.958827018737793 -0.006357000209391117 -0.34306100010871887 -0.9392920136451721
          -0.6141949892044067 -0.4932990074157715 -0.615971028804779 -0.8230590224266052 -0.4614889919757843 -0.3310610055923462
          -0.9002950191497803 -0.3677699863910675 -0.23284000158309937 -0.9829229712486267 -0.17933699488639832 -0.04123200103640556
          -0.9981709718704224 0.02104800008237362 0.056669000536203384 -0.9934219717979431 -0.09683799743652344 0.06111700087785721
          0.592212975025177 -0.6070569753646851 -0.5298730134963989 0.7103989720344543 -0.5910009741783142 -0.3821659982204437
          0.7764890193939209 -0.6170849800109863 -0.1275559961795807 0.8167409896850586 -0.5089240074157715 -0.27190101146698
          0.504796028137207 -0.4764530062675476 -0.7198429703712463 0.7505959868431091 -0.6506760120391846 0.11500199884176254
          0.4286080002784729 -0.25073501467704773 0.8680019974708557 0.5213509798049927 -0.3597480058670044 0.7738050222396851
          0.34279799461364746 -0.21411100029945374 0.914683997631073 0.2664619982242584 0.050572000443935394 0.9625179767608643
          0.2295520007610321 0.2115979939699173 0.950016975402832 -0.1457349956035614 0.2733969986438751 0.9507970213890076
          0.03758100047707558 0.2572169899940491 0.9656230211257935 0.45583999156951904 0.1935500055551529 0.8687620162963867
          0.2790110111236572 0.390718013048172 0.8772069811820984 0.31240400671958923 0.2510260045528412 0.9161819815635681
          0.39292699098587036 0.1881140023469925 0.9001230001449585 0.45290398597717285 0.16173599660396576 0.8767669796943665
          0.43400099873542786 0.1694220006465912 0.8848389983177185 0.23533399403095245 0.3821670114994049 0.8936259746551514
          0.17446200549602509 0.4450869858264923 0.8783280253410339 0.30474698543548584 0.45935800671577454 0.8343380093574524
          -0.7390580177307129 0.4707069993019104 0.48190000653266907 -0.796904981136322 0.46432599425315857 0.38644999265670776
          -0.7280480265617371 0.3619630038738251 0.5821760296821594 -0.8333160281181335 0.20386099815368652 0.5138339996337891
          -0.5756319761276245 0.2705270051956177 0.7716630101203918 -0.495932012796402 0.30611300468444824 0.8126170039176941
          -0.30341601371765137 0.3030630052089691 0.9033780097961426 -0.21466000378131866 0.29640498757362366 0.9306259751319885
          -0.7704989910125732 0.2360990047454834 0.592104971408844 -0.8371970057487488 0.37206700444221497 0.40083301067352295
          -0.8493540287017822 0.30168598890304565 0.43310800194740295 -0.8912780284881592 0.2023800015449524 0.4057900011539459
          -0.9320999979972839 0.24556800723075867 0.26624301075935364 0.7229329943656921 -0.5182110071182251 0.45697399973869324
          0.6675090193748474 -0.5312939882278442 0.5216879844665527 -0.9624559879302979 0.06481199711561203 0.26358699798583984
          -0.969976007938385 0.056522998958826065 0.23654299974441528 0.6084290146827698 -0.40896400809288025 -0.680118978023529
          0.6011419892311096 -0.3993690013885498 -0.6921939849853516 0.8445079922676086 -0.2508220076560974 -0.4731749892234802
          0.45452800393104553 -0.4055370092391968 -0.7930600047111511 -0.5520740151405334 -0.6186130046844482 -0.5590459704399109
          -0.42841100692749023 -0.6689599752426147 -0.6074180006980896 -0.38385799527168274 -0.602724015712738 -0.699554979801178
          -0.2085690051317215 -0.48969900608062744 -0.8465780019760132 0.22939400374889374 -0.2851310074329376 -0.9306340217590332
          0.2513760030269623 -0.19247299432754517 -0.9485589861869812 0.16794100403785706 -0.1909089982509613 -0.9671350121498108
          -0.21538999676704407 -0.3322190046310425 -0.9182800054550171 -0.14897100627422333 -0.14231599867343903 -0.9785469770431519
          0.053360000252723694 -0.1427229940891266 -0.9883229732513428 -0.842490017414093 -0.4096530079841614 -0.34984898567199707
          -0.9242089986801147 -0.3346000015735626 -0.1840669959783554 -0.9602550268173218 -0.23678100109100342 -0.14780299365520477
          -0.9781820178031921 -0.18613600730895996 -0.09227299690246582 -0.9954090118408203 0.02994699962437153 0.09091100096702576
          -0.9638479948043823 0.20945599675178528 0.1647000014781952 -0.9377959966659546 0.24131199717521667 0.24961400032043457
          -0.9785000085830688 0.17942500114440918 0.10170499980449677 -0.9974300265312195 0.0684560015797615 0.02116600051522255
          0.7414960265159607 -0.46038201451301575 -0.48809099197387695 0.8570320010185242 -0.512067973613739 -0.05728299915790558
          0.908253014087677 -0.3888550102710724 -0.1544950008392334 0.8967139720916748 -0.36921000480651855 -0.24410699307918549
          0.8635860085487366 -0.4394420087337494 0.2472040057182312 0.5770379900932312 -0.4020560085773468 0.7109000086784363
          0.44541600346565247 -0.19165800511837006 0.8745700120925903 0.5248420238494873 -0.07001999765634537 0.8483150005340576
          0.1609639972448349 0.23599499464035034 0.958329975605011 -0.06470999866724014 0.2709380090236664 0.9604189991950989
          0.6127210259437561 -0.037668000906705856 0.7894009947776794 0.5883679986000061 0.31586501002311707 0.7443469762802124
          0.7944849729537964 0.08099000155925751 0.6018589735031128 0.27246201038360596 0.3192720115184784 0.9076510071754456
          0.3044539988040924 0.21550799906253815 0.9278280138969421 0.473006010055542 0.255484014749527 0.8432040214538574
          0.6435670256614685 0.18140000104904175 0.7435830235481262 0.5600159764289856 0.17195799946784973 0.8104400038719177
          0.7200739979743958 0.13598400354385376 0.6804429888725281 0.5133649706840515 0.14047099649906158 0.8465960025787354
          0.38686099648475647 0.37681901454925537 0.8416330218315125 0.6047469973564148 0.3314230144023895 0.7241820096969604
          -0.8598250150680542 0.28430798649787903 0.4241099953651428 -0.8958269953727722 0.38325199484825134 0.2249699980020523
          -0.8965110182762146 0.3630309998989105 0.2539219856262207 -0.794651985168457 0.4350909888744354 0.42334699630737305
          -0.6836540102958679 0.26192399859428406 0.6811850070953369 -0.3615899980068207 0.3121980130672455 0.878512978553772
          -0.3558709919452667 0.2969590127468109 0.8860989809036255 -0.20163199305534363 0.2930870056152344 0.934581995010376
          -0.8757020235061646 0.19552400708198547 0.4414930045604706 -0.28787800669670105 0.6693239808082581 0.6849319934844971
          -0.965050995349884 0.1599929928779602 0.20755499601364136 -0.8083739876747131 0.4063139855861664 0.4259580075740814
          -0.9860090017318726 0.1541540026664734 -0.06341800093650818 -0.9432849884033203 0.2945530116558075 0.15313799679279327
          0.6725999712944031 -0.30374500155448914 0.6747949719429016 0.8059229850769043 -0.36451300978660583 0.46649599075317383
          0.5360310077667236 -0.3538300096988678 -0.7664700150489807 0.501600980758667 -0.37765398621559143 -0.778315007686615
          0.6500380039215088 -0.4321480095386505 -0.6250590085983276 0.76111900806427 -0.4246940016746521 -0.4902369976043701
          0.4287000000476837 -0.3312839865684509 -0.8405159711837769 -0.6263920068740845 -0.5845479965209961 -0.51569002866745
          -0.5354290008544922 -0.5311679840087891 -0.6566399931907654 -0.3727419972419739 -0.49795299768447876 -0.7830110192298889
          0.16545799374580383 -0.12899300456047058 -0.977744996547699 0.4082010090351105 -0.24240300059318542 -0.8801209926605225
          0.24066400527954102 -0.09015099704265594 -0.9664130210876465 0.19096900522708893 -0.11587399989366531 -0.9747329950332642
          0.08372099697589874 -0.015447000041604042 -0.9963700175285339 -0.4759480059146881 -0.41700199246406555 -0.7743269801139832
          -0.3732309937477112 -0.2365339994430542 -0.8970789909362793 -0.24084000289440155 -0.13842199742794037 -0.9606429934501648
          -0.10677699744701385 -0.054037999361753464 -0.992812991142273 -0.22483399510383606 0.06705199927091599 -0.972087025642395
          -0.3191080093383789 -0.003266999963670969 -0.9477130174636841 -0.062474001199007034 0.08659999817609787 -0.9942820072174072
          -0.7437580227851868 -0.3715130090713501 -0.5556989908218384 -0.9816910028457642 -0.13424299657344818 -0.1351339966058731
          -0.9079859852790833 -0.23132100701332092 -0.34935998916625977 -0.9976199865341187 -0.011092999950051308 0.06805200129747391
          -0.9968010187149048 -0.06965500116348267 0.03918600082397461 -0.9977070093154907 0.011121000163257122 0.06676899641752243
          -0.9561079740524292 0.21496300399303436 0.19912000000476837 0.9533420205116272 -0.2867099940776825 0.09452600032091141
          0.9681249856948853 -0.24912799894809723 0.025846000760793686 0.9364960193634033 -0.3455129861831665 -0.05995799973607063
          0.9650390148162842 -0.19413000345230103 0.17610399425029755 0.8111460208892822 -0.4410099983215332 -0.3841260075569153
          0.8955550193786621 -0.19935999810695648 0.39779001474380493 0.7141180038452148 -0.24142900109291077 0.6570749878883362
          0.059057001024484634 0.24998199939727783 0.9664480090141296 -0.08216899633407593 0.2750610113143921 0.9579089879989624
          0.4893549978733063 0.1681929975748062 0.8557119965553284 0.2795009911060333 0.23689499497413635 0.9304620027542114
          -0.03962299972772598 0.29392799735069275 0.9550060033798218 -0.15888899564743042 0.3138419985771179 0.9360859990119934
          0.7657909989356995 -0.12698200345039368 0.6304280161857605 0.7700960040092468 0.22073200345039368 0.5985220074653625
          0.8916599750518799 0.04754500091075897 0.450203001499176 0.9493700265884399 -0.09301699697971344 0.3000749945640564
          0.5929650068283081 0.2828109860420227 0.7539299726486206 0.4274100065231323 0.32981500029563904 0.8417500257492065
          0.7306380271911621 0.24271300435066223 0.6381679773330688 0.8898329734802246 0.18632499873638153 0.4165090024471283
          0.7047380208969116 0.11708299815654755 0.6997399926185608 0.9570279717445374 0.10595499724149704 0.26994600892066956
          0.882764995098114 0.06716900318861008 0.46498799324035645 0.6681069731712341 0.2773129940032959 0.6904569864273071
          0.7516459822654724 0.23091299831867218 0.6178249716758728 -0.9034630060195923 0.3299869894981384 0.27361199259757996
          -0.8717849850654602 0.3424670100212097 0.3502950072288513 0.7682420015335083 0.42852699756622314 0.47557300329208374
          -0.4204609990119934 0.26710399985313416 0.8671029806137085 -0.8588889837265015 0.18700900673866272 0.47679901123046875
          -0.8247830271720886 0.20118699967861176 0.5284469723701477 -0.6626579761505127 0.23860900104045868 0.7098940014839172
          -0.1614460051059723 0.2283950001001358 0.9600890278816223 -0.9639130234718323 0.1403460055589676 0.22621899843215942
          0.9693610072135925 0.15856899321079254 0.18760299682617188 -0.9857419729232788 0.1069670021533966 -0.12989099323749542
          -0.8463429808616638 0.39546599984169006 0.3568060100078583 -0.8941370248794556 0.33324700593948364 -0.29910698533058167
          -0.938264012336731 0.33826199173927307 -0.07238200306892395 -0.9306529760360718 0.13976499438285828 -0.3381580114364624
          -0.9195740222930908 0.374099999666214 0.12014099955558777 0.5964789986610413 -0.31297600269317627 -0.739093005657196
          0.6535549759864807 -0.4390070140361786 -0.6165540218353271 0.5303109884262085 -0.28305500745773315 -0.7991560101509094
          0.5343300104141235 -0.2098030000925064 -0.8188250064849854 0.11216799914836884 -0.2463880032300949 -0.9626579880714417
          0.2946690022945404 -0.12545500695705414 -0.9473279714584351 0.012980000115931034 -0.09605299681425095 -0.9952920079231262
          0.49275800585746765 -0.17829300463199615 -0.851705014705658 0.36800700426101685 -0.0795930027961731 -0.9264100193977356
          0.27251800894737244 0.022509999573230743 -0.961887001991272 -0.06307599693536758 0.10558000206947327 -0.9924079775810242
          -0.2204039990901947 0.2754630148410797 -0.9357039928436279 -0.6347579956054688 -0.24513700604438782 -0.7327960133552551
          -0.6026300191879272 -0.06700299680233002 -0.7952029705047607 -0.3786010146141052 -0.08050200343132019 -0.9220520257949829
          -0.4392240047454834 0.215706005692482 -0.8720970153808594 -0.5960850119590759 0.07922899723052979 -0.799003005027771
          -0.8745549917221069 -0.15139199793338776 -0.4606890082359314 -0.7366499900817871 -0.17947399616241455 -0.65202397108078
          -0.9983569979667664 0.056099001318216324 0.011644000187516212 -0.9785130023956299 -0.03944699838757515 -0.20237700641155243
          -0.968284010887146 0.22764800488948822 0.1029679998755455 0.9688959717750549 -0.22114300727844238 0.11106500029563904
          0.9627810120582581 -0.22776399552822113 -0.14552199840545654 0.925445020198822 -0.06629599630832672 0.3730359971523285
          0.7485060095787048 -0.4009769856929779 -0.5281620025634766 0.1094760000705719 0.21004700660705566 0.97154301404953
          0.43160301446914673 0.1741359978914261 0.88509601354599 0.8008819818496704 0.03566399961709976 0.5977590084075928
          0.8277369737625122 0.18237100541591644 0.5306529998779297 0.9672409892082214 0.2116760015487671 0.14013199508190155
          0.8512930274009705 0.27333399653434753 0.4478699862957001 0.9926499724388123 0.11175700277090073 0.04644399881362915
          0.9880729913711548 0.09712400287389755 -0.11949300020933151 0.9911059737205505 0.035413000732660294 -0.1282780021429062
          0.9864349961280823 0.04318099841475487 0.15837299823760986 0.9867920279502869 -0.01030999980866909 0.1616629958152771
          -0.9187870025634766 0.3353630006313324 0.2082349956035614 -0.6322420239448547 0.1900320053100586 0.7511039972305298
          -0.4108020067214966 0.1779100000858307 0.8941980004310608 -0.9570000171661377 0.13675999641418457 0.25582799315452576
          -0.8034170269966125 0.1943809986114502 0.5627930164337158 -0.9579079747200012 0.13288000226020813 0.25446900725364685
          -0.9137809872627258 0.14348900318145752 0.38001900911331177 -0.7688630223274231 0.1802929937839508 0.6134679913520813
          -0.037981998175382614 0.15403200685977936 0.9873359799385071 -0.28800100088119507 0.11568699777126312 0.9506170153617859
          -0.9941409826278687 0.06388299912214279 -0.08719799667596817 -0.9359040260314941 -0.03345600143074989 -0.3506619930267334
          -0.8973789811134338 0.014872999861836433 -0.4410090148448944 -0.912962019443512 0.3985089957714081 -0.08769600093364716
          -0.8590199947357178 0.5036489963531494 -0.09176599979400635 -0.7639260292053223 0.5211279988288879 -0.3805820047855377
          -0.7593280076980591 0.35832399129867554 -0.5431619882583618 -0.7167999744415283 0.13560299575328827 -0.6839659810066223
          0.8879070281982422 -0.2434229999780655 -0.39034000039100647 0.6599349975585938 -0.17420899868011475 -0.7308459877967834
          0.5921819806098938 -0.19152900576591492 -0.7827110290527344 0.6765570044517517 -0.11275000125169754 -0.7277079820632935
          0.761925995349884 0.012668999843299389 -0.6475399732589722 0.2661759853363037 -0.3281539976596832 -0.9063469767570496
          -0.17038199305534363 -0.26985299587249756 -0.9477069973945618 0.05912100151181221 -0.32932600378990173 -0.942363977432251
          0.3471849858760834 -0.0715159997344017 -0.9350659847259521 0.3855780065059662 -0.2545109987258911 -0.886879026889801
          -0.27216801047325134 0.13722899556159973 -0.9524139761924744 -0.29916200041770935 -0.13222500681877136 -0.9449970126152039
          0.6738979816436768 -0.03055099956691265 -0.7381920218467712 0.5160899758338928 -0.0156870000064373 -0.8563910126686096
          0.37240099906921387 0.05286499857902527 -0.9265649914741516 -0.3562310039997101 0.391400009393692 -0.848471999168396
          -0.47418200969696045 0.3596310019493103 -0.8036270141601562 -0.5360350012779236 0.5317519903182983 -0.655672013759613
          -0.833853006362915 0.05119600147008896 -0.5496079921722412 -0.6138280034065247 0.4976400136947632 -0.612837016582489
          -0.767166018486023 0.3249320089817047 -0.553059995174408 -0.8422240018844604 0.21450600028038025 -0.4946169853210449
          -0.9760400056838989 0.09835399687290192 -0.1940940022468567 -0.9524580240249634 0.27020901441574097 -0.14075200259685516
          0.9933459758758545 -0.11493699997663498 0.0072929998859763145 0.9602540135383606 -0.18874399363994598 0.2056419998407364
          0.9865170121192932 -0.11982099711894989 -0.11148200184106827 0.9095450043678284 0.060513999313116074 0.41117700934410095
          0.20697300136089325 0.15023300051689148 0.966742992401123 0.4916900098323822 0.07949300110340118 0.8671339750289917
          0.9776830077171326 -0.13365499675273895 0.16208399832248688 0.8744230270385742 -0.09828100353479385 0.47510600090026855
          0.7292289733886719 -0.024602999910712242 0.6838279962539673 0.8454769849777222 0.19648799300193787 0.49654901027679443