<?xml version="1.0"?>
<VTKFile type="PolyData" version="0.1" byte_order="LittleEndian" header_type="UInt32" compressor="vtkZLibDataCompressor">
  <PolyData>
    <Piece NumberOfPoints="1122" NumberOfVerts="0" NumberOfLines="0" NumberOfStrips="0" NumberOfPolys="2240">
      <PointData Normals="Normals">
        <DataArray type="Float32" Name="Normals" NumberOfComponents="3" format="ascii" RangeMin="0.9999992966159499" RangeMax="1.000000727322622">
          0.0759190022945404 0.9762539863586426 0.202891007065773 -0.053647998720407486 0.9941020011901855 -0.09424900263547897
          -0.2719630002975464 0.9506329894065857 0.14944200217723846 -0.08939699828624725 0.8969500064849854 0.43300101161003113
          0.23562400043010712 0.9372180104255676 -0.25710898637771606 0.4378179907798767 0.8977710008621216 -0.048186998814344406
          0.2924709916114807 0.8600720167160034 0.4180150032043457 0.027845999225974083 0.8651080131530762 -0.5008130073547363
          -0.2571299970149994 0.9183409810066223 0.3008899986743927 -0.10271000117063522 0.9266700148582458 0.3615719974040985
          -0.33142200112342834 0.8729429841041565 0.3579519987106323 -0.1612350046634674 0.9572349786758423 0.24021799862384796
          -0.217508003115654 0.957394003868103 0.18996499478816986 -0.15693700313568115 0.9871209859848022 -0.031032999977469444
          -0.19473999738693237 0.9536839723587036 0.2292650043964386 0.03358300030231476 0.9267740249633789 -0.3741160035133362
          -0.04510299861431122 0.9384070038795471 0.34257400035858154 0.24611899256706238 0.8925920128822327 0.3777630031108856
          -0.042047999799251556 0.9115579724311829 0.4090149998664856 0.3759540021419525 0.7624170184135437 -0.5266669988632202
          0.3849869966506958 0.8576620221138 0.3408829867839813 0.5035439729690552 0.7458080053329468 -0.4361349940299988
          0.5102609992027283 0.825776994228363 -0.24026300013065338 0.30510300397872925 0.786666989326477 0.5367180109024048
          0.011421999894082546 0.8186439871788025 -0.5741879940032959 0.29579800367355347 0.6971889734268188 -0.653016984462738
          0.1858620047569275 0.7345269918441772 -0.652629017829895 0.6460440158843994 0.7373899817466736 0.19718700647354126
          -0.16266000270843506 0.9736670255661011 0.15973100066184998 0.7724109888076782 0.5747359991073608 0.27029699087142944
          -0.05040699988603592 0.9971879720687866 0.05545099824666977 -0.04947099834680557 0.9399530291557312 0.3377000093460083
          0.08237499743700027 0.9657340049743652 0.24611300230026245 0.03594899922609329 0.9906619787216187 -0.13151399791240692
          -0.04865400120615959 0.98921799659729 -0.13812999427318573 0.016339000314474106 0.962706983089447 0.2700529992580414
          0.16546300053596497 0.630856990814209 -0.7580509781837463 0.1851930022239685 0.7493529915809631 -0.6357470154762268
          -0.006035999860614538 0.8812239766120911 -0.47266000509262085 0.23656600713729858 0.9711830019950867 0.028994999825954437
          0.06122399866580963 0.9732159972190857 0.2215919941663742 0.4335069954395294 0.8876879811286926 0.15518200397491455
          0.2425519973039627 0.8848410248756409 0.39777401089668274 0.4155060052871704 0.8632329702377319 0.28667598962783813
          0.9428120255470276 0.30880099534988403 0.12549200654029846 0.45978599786758423 0.5797590017318726 -0.6726639866828918
          0.5283510088920593 0.6540169715881348 -0.5413939952850342 0.280690997838974 0.8563690185546875 0.43341100215911865
          0.3894039988517761 0.9210519790649414 0.005249999929219484 0.4268749952316284 0.8116999864578247 -0.39864999055862427
          0.22146600484848022 0.570667028427124 -0.7907540202140808 0.30183300375938416 0.5233529806137085 -0.7968680262565613
          0.10273700207471848 0.9943979978561401 -0.024833999574184418 -0.04553399980068207 0.956866979598999 -0.2869339883327484
          0.21707600355148315 0.9654319882392883 0.1442900002002716 0.19399599730968475 0.8504670262336731 -0.4889490008354187
          0.4944559931755066 0.8159430027008057 -0.2995840013027191 0.05339999869465828 0.7870410084724426 -0.6145849823951721
          -0.057252999395132065 0.8070530295372009 -0.5876960158348083 -0.1274929940700531 0.8573510050773621 -0.4986940026283264
          -0.1708739995956421 0.9599429965019226 -0.22206200659275055 -0.056341998279094696 0.997560977935791 0.041211001574993134
          -0.21475400030612946 0.9738569855690002 -0.07405199855566025 -0.32398098707199097 0.9432229995727539 -0.07326100021600723
          0.06036200001835823 0.585129976272583 -0.8086900115013123 0.10259799659252167 0.1861419975757599 -0.9771509766578674
          0.08643700182437897 0.22928300499916077 -0.969514012336731 0.13977700471878052 0.4468989968299866 -0.8835970163345337
          0.5130810141563416 0.8543949723243713 -0.08219700306653976 0.4300380051136017 0.9019650220870972 0.039062999188899994
          0.39371299743652344 0.8974779844284058 0.1988070011138916 0.31281501054763794 0.9023450016975403 0.29651299118995667
          0.1774519979953766 0.9804559946060181 0.0849509984254837 0.052310001105070114 0.978547990322113 0.19926999509334564
          0.10133399814367294 0.9377620220184326 0.33216598629951477 0.18452399969100952 0.9157270193099976 0.35692399740219116
          0.5470929741859436 0.2451390027999878 -0.8003720045089722 0.3852599859237671 0.30225300788879395 -0.8719040155410767
          0.5965780019760132 0.38170498609542847 -0.7059720158576965 0.3592880070209503 0.24567300081253052 -0.9003090262413025
          0.49939900636672974 0.6340410113334656 -0.5904170274734497 0.45788899064064026 0.881309986114502 -0.11674799770116806
          0.3960320055484772 0.8445680141448975 -0.36036500334739685 0.3020760118961334 0.9334869980812073 0.19326800107955933
          0.45633798837661743 0.6263830065727234 -0.6319810152053833 0.2212889939546585 0.1787489950656891 -0.9586870074272156
          0.24237099289894104 0.9669430255889893 -0.0792360007762909 0.09306800365447998 0.9464300274848938 -0.3092069923877716
          0.021183999255299568 0.9243630170822144 -0.3809249997138977 -0.023986000567674637 0.8554549813270569 -0.517320990562439
          0.22276300191879272 0.9694629907608032 -0.10255499929189682 0.5389090180397034 0.766215980052948 -0.3499870002269745
          0.13753800094127655 0.8884909749031067 -0.43779799342155457 -0.05349799990653992 0.8297809958457947 -0.5555179715156555
          0.6023529767990112 0.7677339911460876 -0.218531996011734 0.0366629995405674 0.5245609879493713 -0.850583016872406
          -0.07597900182008743 0.600475013256073 -0.7960259914398193 -0.39124900102615356 0.7908089756965637 -0.4706859886646271
          -0.30979400873184204 0.5827270150184631 -0.7513030171394348 -0.5490419864654541 0.803292989730835 -0.23080900311470032
          -0.8002099990844727 0.5735960006713867 -0.17507599294185638 -0.7642989754676819 0.61667400598526 -0.18857400119304657
          -0.8168529868125916 0.5200250148773193 -0.2496500015258789 -0.8167449831962585 0.5703539848327637 -0.08731800317764282
          -0.60698401927948 0.7722579836845398 -0.18758200109004974 -0.19815599918365479 0.9800699949264526 -0.014050999656319618
          0.19870300590991974 0.9754980206489563 -0.09444999694824219 0.13217000663280487 -0.06546200066804886 -0.989063024520874
          0.160521000623703 -0.17859800159931183 -0.970740020275116 -0.0619410015642643 -0.049639999866485596 -0.996845006942749
          -0.06266999989748001 0.22928300499916077 -0.971340000629425 0.4177739918231964 0.8975620269775391 -0.1408810019493103
          0.5762460231781006 0.7684029936790466 -0.2783859968185425 0.2866309881210327 0.931846022605896 -0.22249700129032135
          0.1340560019016266 0.981374979019165 -0.13759799301624298 0.07151500135660172 0.9973750114440918 0.011322000063955784
          0.07718899846076965 0.9771130084991455 0.1982239931821823 0.2190530002117157 0.9324949979782104 0.2871739864349365
          0.2127929925918579 0.9552199840545654 0.20560500025749207 0.4159669876098633 -0.11926200240850449 -0.9015259742736816
          0.5486459732055664 -0.0134680001065135 -0.8359460234642029 0.5973049998283386 0.3297570049762726 -0.731086015701294
          0.2876879870891571 -0.14657700061798096 -0.9464409947395325 0.5414699912071228 0.7373369932174683 -0.4039120078086853
          0.45221999287605286 0.8917959928512573 0.014006000012159348 0.4890210032463074 0.33385199308395386 -0.8058549761772156
          0.53923499584198 0.3043549954891205 -0.7852339744567871 0.5579500198364258 0.4829849898815155 -0.6748459935188293
          0.17164400219917297 -0.21140499413013458 -0.9622089862823486 0.038965001702308655 0.9107739925384521 -0.41106200218200684
          -0.016599999740719795 0.9965940117835999 -0.08077699691057205 -0.19682100415229797 0.9395229816436768 -0.28028300404548645
          0.2723290026187897 0.9500719904899597 -0.15231600403785706 0.5690580010414124 0.7989029884338379 -0.19474999606609344
          -0.267985999584198 0.9215480089187622 -0.28095099329948425 -0.21182000637054443 0.9719229936599731 -0.10245499759912491
          -0.262611985206604 0.33161601424217224 -0.9061269760131836 -0.5136039853096008 0.3809100091457367 -0.7688419818878174
          -0.6034629940986633 0.6272270083427429 -0.49235999584198 -0.7855420112609863 0.4676550030708313 -0.40524300932884216
          -0.8472639918327332 0.517212986946106 -0.12097000330686569 -0.8880199790000916 0.43664199113845825 -0.14409799873828888
          -0.8898839950561523 0.44753900170326233 -0.08840499818325043 -0.8891680240631104 0.44447600841522217 -0.10872399806976318
          -0.8936219811439514 0.3483850061893463 -0.28296199440956116 -0.705469012260437 0.20564299821853638 -0.6782510280609131
          -0.6966999769210815 0.7080960273742676 -0.11493200063705444 -0.659313976764679 0.7449910044670105 0.10145899653434753
          -0.16592399775981903 0.9813609719276428 0.09695400297641754 -0.5443869829177856 0.8220049738883972 0.1671849936246872
          0.2911730110645294 -0.23207999765872955 -0.9280930161476135 0.0643400028347969 -0.20201300084590912 -0.9772670269012451
          0.4095590114593506 -0.265390008687973 -0.872829020023346 0.2324420064687729 -0.3611220121383667 -0.9030849933624268
          -0.3056040108203888 0.161421999335289 -0.9383760094642639 -0.3583250045776367 0.00790099985897541 -0.9335640072822571
          -0.11437900364398956 -0.17789000272750854 -0.9773799777030945 -0.016878999769687653 -0.3189760148525238 -0.9476119875907898
          0.46055299043655396 0.8376230001449585 -0.2937310039997101 0.6202890276908875 0.7732269763946533 -0.13176600635051727
          0.6378589868545532 0.7696380019187927 0.02816700004041195 0.4424690008163452 0.8771470189094543 -0.18664200603961945
          0.32303500175476074 0.9449219703674316 -0.05262799933552742 0.3083840012550354 0.9508649706840515 0.02747800014913082
          0.3218519985675812 0.9467710256576538 0.005987999960780144 0.18756699562072754 0.9820669889450073 -0.01905900053679943
          0.40856099128723145 0.906358003616333 0.10766900330781937 0.24192999303340912 0.9564020037651062 0.16359800100326538
          0.5368009805679321 0.8434929847717285 0.0191040001809597 0.39708399772644043 -0.31065401434898376 -0.8636080026626587
          0.28451499342918396 -0.30192700028419495 -0.9098849892616272 0.2155500054359436 -0.280364990234375 -0.9353790283203125
          0.43551498651504517 -0.20202399790287018 -0.877219021320343 0.5457749962806702 0.04236200079321861 -0.8368600010871887
          0.09071999788284302 -0.37515899538993835 -0.9225109815597534 0.6132299900054932 0.7486479878425598 -0.25194498896598816
          0.7188799977302551 0.4288409948348999 -0.5470899939537048 0.6422290205955505 0.2453790009021759 -0.7261760234832764
          -0.12773999571800232 0.9905290007591248 -0.050338998436927795 -0.4571160078048706 0.8702290058135986 0.18369999527931213
          -0.520933985710144 0.7757589817047119 0.356126993894577 0.29621198773384094 0.8987740278244019 0.3232089877128601
          -0.12827900052070618 0.9472839832305908 0.29359200596809387 -0.4503459930419922 0.8706129789352417 0.19804400205612183
          -0.7271069884300232 0.3797929883003235 -0.5719029903411865 -0.9089789986610413 0.28783100843429565 -0.30151501297950745
          -0.9189879894256592 0.26626598834991455 -0.29079800844192505 -0.9466050267219543 0.32032400369644165 -0.03647800162434578
          -0.9279729723930359 0.37140798568725586 0.030375000089406967 -0.9050970077514648 0.42520299553871155 -0.0010939999483525753
          -0.8499400019645691 0.10897800326347351 -0.515487015247345 -0.6666359901428223 0.012550000101327896 -0.745278000831604
          -0.8733839988708496 0.4111579954624176 0.26105499267578125 -0.721327006816864 0.5857149958610535 0.36962801218032837
          0.1790730059146881 -0.30834299325942993 -0.9342679977416992 0.29291200637817383 -0.31267300248146057 -0.9035699963569641
          -0.009391999803483486 -0.32114699482917786 -0.9469829797744751 0.24919700622558594 -0.18896999955177307 -0.9498379826545715
          0.3010309934616089 -0.31073999404907227 -0.9015660285949707 -0.44415900111198425 -0.10995300114154816 -0.8891760110855103
          -0.22522500157356262 -0.17383499443531036 -0.9586740136146545 0.03970000147819519 -0.26271599531173706 -0.9640560150146484
          -0.04389499872922897 -0.24342000484466553 -0.9689270257949829 0.009755999781191349 -0.3961629867553711 -0.9181280136108398
          0.019812000915408134 -0.3713499903678894 -0.9282810091972351 -0.06616699695587158 -0.2685439884662628 -0.9609919786453247
          0.09335500001907349 -0.32079800963401794 -0.9425359964370728 -0.13730600476264954 -0.2782120108604431 -0.9506549835205078
          0.5471349954605103 0.8347569704055786 0.06183600053191185 0.3122439980506897 0.8693169951438904 0.38313499093055725
          0.38400501012802124 0.764585018157959 0.5176389813423157 0.42034900188446045 0.7901340126991272 0.4460879862308502
          0.3780069947242737 0.8299440145492554 0.4102489948272705 0.546513020992279 0.8062800168991089 0.22635599970817566
          0.32989901304244995 0.6177129745483398 0.7138609886169434 0.6784480214118958 0.5866850018501282 0.44216400384902954
          0.537202000617981 0.8059890270233154 0.24858799576759338 0.5563259720802307 0.7996129989624023 0.22609800100326538
          0.7407249808311462 0.5908859968185425 0.31965500116348267 0.5394240021705627 0.8333110213279724 0.12089399993419647
          0.6517840027809143 0.7533320188522339 -0.0875760018825531 0.9308040142059326 0.36529800295829773 -0.012729999609291553
          0.9741880297660828 0.22457000613212585 -0.02292099967598915 0.40588998794555664 -0.314536988735199 -0.8580909967422485
          0.3257580101490021 -0.3771739900112152 -0.8669610023498535 0.2053380012512207 -0.3509489893913269 -0.9136040210723877
          0.1324159950017929 -0.30594098567962646 -0.9427970051765442 0.415926992893219 -0.2463430017232895 -0.8753970265388489
          0.6202170252799988 -0.14114999771118164 -0.7716259956359863 0.7312890291213989 0.09987500309944153 -0.674714982509613
          0.4833199977874756 -0.27008599042892456 -0.832738995552063 0.0669109970331192 -0.2606459856033325 -0.963113009929657
          0.7910280227661133 0.46062400937080383 -0.4026170074939728 0.583977997303009 0.7974420189857483 -0.15184399485588074
          0.8226869702339172 0.18344800174236298 -0.538083016872406 -0.6023989915847778 0.7332209944725037 0.31543898582458496
          -0.69309002161026 0.5518280267715454 0.46380099654197693 -0.6805989742279053 0.5191779732704163 0.5169529914855957
          -0.10041899979114532 0.8330410122871399 0.5440210103988647 -0.08309999853372574 0.7529569864273071 0.652800977230072
          -0.3501339852809906 0.8330209851264954 0.42834898829460144 -0.5490540266036987 0.7560549974441528 0.3562600016593933
          -0.8859180212020874 0.01597600057721138 -0.46356698870658875 -0.9576249718666077 0.08156199753284454 -0.27622899413108826
          -0.9871339797973633 0.1146479994058609 -0.11145199835300446 -0.9925100207328796 0.11310099810361862 0.046174999326467514
          -0.943448007106781 0.2582229971885681 0.20791199803352356 -0.8010410070419312 -0.059085000306367874 -0.5956860184669495
          -0.6653299927711487 -0.11783099919557571 -0.7371919751167297 -0.9174749851226807 0.17873400449752808 0.35537898540496826
          -0.906237006187439 0.14378200471401215 0.39757001399993896 -0.8128250241279602 0.33775201439857483 0.47459399700164795
          0.2467930018901825 -0.3409630060195923 -0.9071040153503418 0.41244998574256897 -0.3270550072193146 -0.8502470254898071
          0.38782501220703125 -0.31234899163246155 -0.8671969771385193 0.12376599758863449 -0.3380900025367737 -0.9329400062561035
          -0.48280099034309387 -0.2086070030927658 -0.8505210280418396 -0.31470200419425964 -0.21408499777317047 -0.9247329831123352
          0.0941459983587265 -0.30145400762557983 -0.9488210082054138 0.0563570000231266 -0.2212429940700531 -0.9735890030860901
          -0.3636209964752197 -0.15287800133228302 -0.9189170002937317 -0.539438009262085 -0.19420599937438965 -0.8193230032920837
          0.266198992729187 0.7185159921646118 0.6425520181655884 0.16592499613761902 0.7235479950904846 0.6700350046157837
          0.32102200388908386 0.4900420010089874 0.8104339838027954 0.23907500505447388 0.5554370284080505 0.7964500188827515
          0.5648019909858704 0.6060150265693665 0.5601289868354797 0.3857389986515045 0.5056759715080261 0.771685004234314
          0.34911099076271057 0.26034000515937805 0.9001910090446472 0.35257500410079956 0.22462299466133118 0.908424973487854
          0.7442479729652405 0.4485020041465759 0.49491599202156067 0.6878330111503601 0.1732659935951233 0.7048860192298889
          0.6885960102081299 0.3475880026817322 0.6364099979400635 0.7723209857940674 0.5084890127182007 0.38073500990867615
          0.7296550273895264 0.5689870119094849 0.379285991191864 0.7015939950942993 0.6426650285720825 0.30781200528144836
          0.6423400044441223 0.7429379820823669 0.18825900554656982 0.6118620038032532 0.7846159934997559 0.10001499950885773
          0.7931140065193176 0.26420000195503235 0.5487890243530273 0.7558940052986145 0.31434398889541626 0.574292004108429
          0.8131669759750366 0.356997013092041 0.4596869945526123 0.8184850215911865 0.5731959939002991 -0.039096999913454056
          0.45562100410461426 -0.4095970094203949 -0.7903410196304321 0.42755401134490967 -0.4011020064353943 -0.8101320266723633
          0.4357300102710724 -0.3525019884109497 -0.8281800150871277 0.3942750096321106 -0.3466140031814575 -0.8511199951171875
          0.30109700560569763 -0.3625369966030121 -0.8819910287857056 0.7702140212059021 -0.2313690036535263 -0.5943390130996704
          0.7831289768218994 -0.10492199659347534 -0.612945020198822 0.5936499834060669 -0.3280639946460724 -0.7348160147666931
          0.8955600261688232 0.139041006565094 -0.4226579964160919 0.8915339708328247 0.2934100031852722 -0.3450770080089569
          0.7117810249328613 0.6640949845314026 -0.2287909984588623 -0.7280740141868591 0.5211489796638489 0.4453220069408417
          -0.7512490153312683 0.3870700001716614 0.534604012966156 -0.7871050238609314 0.23074400424957275 0.5720340013504028
          -0.3584989905357361 0.7956870198249817 0.48822298645973206 -0.23503099381923676 0.5526130199432373 0.7996119856834412
          -0.409947007894516 0.6164209842681885 0.6722859740257263 -0.05754299834370613 0.5889279842376709 0.8061349987983704
          -0.5832740068435669 0.7353460192680359 0.3450480103492737 -0.9000909924507141 -0.040070001035928726 -0.43385499715805054
          -0.9514809846878052 -0.10294599831104279 -0.28997498750686646 -0.9847220182418823 -0.022833000868558884 -0.1726289987564087
          -0.9545580148696899 0.11710800230503082 0.27405399084091187 -0.999468982219696 -0.025583000853657722 0.020159000530838966
          -0.814333975315094 -0.12554599344730377 -0.5666549801826477 -0.6955010294914246 -0.17819799482822418 -0.6960780024528503
          -0.8847090005874634 0.019328000023961067 0.4657430052757263 -0.8972600102424622 0.14997300505638123 0.4152509868144989
          -0.9140040278434753 0.0020989999175071716 0.4056990146636963 -0.8142539858818054 0.191771999001503 0.5479170083999634
          0.8634939789772034 -0.1748500019311905 -0.4730820059776306 0.3142249882221222 -0.28481701016426086 -0.9056169986724854
          0.8751310110092163 -0.18543699383735657 -0.446943998336792 0.1579349935054779 -0.23087599873542786 -0.9600800275802612
          0.12213999778032303 -0.2549470067024231 -0.9592099785804749 0.1562339961528778 -0.21235600113868713 -0.9646220207214355
          0.027017999440431595 -0.1045290008187294 -0.9941549897193909 -0.7871609926223755 -0.12543000280857086 -0.603859007358551
          -0.7856510281562805 -0.12829099595546722 -0.6052230000495911 -0.5990849733352661 -0.13685700297355652 -0.7889019846916199
          -0.8532450199127197 -0.13317300379276276 -0.5042200088500977 0.23849500715732574 0.5888280272483826 0.7722700238227844
          0.08882399648427963 0.4809029996395111 0.8722630143165588 0.2406039983034134 0.3644939959049225 0.899586021900177
          0.14653700590133667 0.3808920085430145 0.9129340052604675 0.5753329992294312 0.3508560061454773 0.7388449907302856
          0.30331599712371826 -0.038982998579740524 0.9520919919013977 0.31849899888038635 0.12707799673080444 0.9393659830093384
          0.499208003282547 0.028125999495387077 0.8660249710083008 0.5437210202217102 0.1869170069694519 0.8181859850883484
          0.508857011795044 -0.015172000043094158 0.8607169985771179 0.6991609930992126 0.10274200141429901 0.7075430154800415
          0.6589800119400024 0.1437859982252121 0.7382889986038208 0.5627020001411438 -0.006115000229328871 0.8266370296478271
          0.9335290193557739 0.23530800640583038 0.27046999335289 0.8690249919891357 0.4200429916381836 0.2614549994468689
          0.9127529859542847 0.4014509916305542 0.07562600076198578 0.7387419939041138 0.6739299893379211 -0.008844999596476555
          0.6182469725608826 0.7805269956588745 -0.09245900064706802 0.8493369817733765 0.13922399282455444 0.5091599822044373
          0.9593729972839355 0.08417399972677231 0.26929301023483276 0.4587390124797821 -0.40322500467300415 -0.7918130159378052
          0.4991520047187805 -0.41521400213241577 -0.7605559825897217 0.4474889934062958 -0.36429300904273987 -0.8167279958724976
          0.36958199739456177 -0.2624559998512268 -0.8913620114326477 0.41795599460601807 -0.31851300597190857 -0.8508009910583496
          0.6235690116882324 -0.3230859935283661 -0.711883008480072 0.8386510014533997 -0.20708300173282623 -0.5037670135498047
          0.9325609803199768 -0.04779599979519844 -0.35783499479293823 0.9823880195617676 0.15852700173854828 -0.0989070013165474
          0.8850150108337402 0.4197140038013458 -0.20146599411964417 -0.7061470150947571 0.193914994597435 0.680994987487793
          -0.6827849745750427 0.3017129898071289 0.6654130220413208 -0.6719130277633667 0.5595309734344482 0.48524001240730286
          -0.8057469725608826 0.11657799780368805 0.5806729793548584 -0.7043939828872681 -0.024640999734401703 0.7093809843063354
          -0.7266680002212524 -0.09806600213050842 0.6799539923667908 -0.5084959864616394 0.7118949890136719 0.48439499735832214
          -0.25362199544906616 0.498989999294281 0.8286640048027039 -0.32201799750328064 0.35950401425361633 0.875819981098175
          -0.21559999883174896 0.43287599086761475 0.8752909898757935 -0.5679119825363159 0.5043830275535583 0.6504420042037964
          -0.533050000667572 0.612205982208252 0.5840049982070923 0.2396010011434555 0.4778740108013153 0.8451200127601624
          -0.09152700006961823 0.3478510081768036 0.9330719709396362 -0.9102039933204651 -0.12369299679994583 -0.39525800943374634
          -0.9783030152320862 -0.14000999927520752 -0.15271200239658356 -0.9890739917755127 -0.09646899998188019 0.11147099733352661
          -0.819811999797821 -0.1262570023536682 -0.5585399866104126 -0.8241029977798462 -0.035711001604795456 0.565313994884491
          -0.8044840097427368 -0.06806500256061554 0.5900610089302063 -0.8491989970207214 0.05437399819493294 0.5252659916877747
          -0.8676440119743347 -0.04340000078082085 0.49528899788856506 -0.8458750247955322 -0.04242200031876564 0.5316920280456543
          0.30963900685310364 -0.2114740014076233 -0.9270399808883667 0.16601599752902985 -0.18346400558948517 -0.9689059853553772
          0.18875500559806824 -0.14492100477218628 -0.9712719917297363 0.3001750111579895 -0.11059299856424332 -0.9474509954452515
          -0.2890869975090027 -0.1315550059080124 -0.9482200145721436 0.23656900227069855 -0.14589500427246094 -0.9605990052223206
          -0.9656749963760376 -0.13149699568748474 -0.2240079939365387 -0.8801299929618835 -0.13804300129413605 -0.4542190134525299
          -0.7329970002174377 -0.16730299592018127 -0.6593369841575623 -0.9249250292778015 -0.12547799944877625 -0.35884401202201843
          -0.9699100255966187 -0.14827699959278107 -0.19310399889945984 0.0177449993789196 0.23191699385643005 0.97257399559021
          0.11241699755191803 0.1528249979019165 0.9818379878997803 0.3921310007572174 -0.11143799871206284 0.913133978843689
          0.09555699676275253 -0.11377499997615814 0.9889000058174133 0.08117999881505966 -0.1712390035390854 0.9818789958953857
          0.1856199949979782 -0.15575499832630157 0.9701989889144897 0.6320610046386719 -0.023365000262856483 0.7745670080184937
          0.6000080108642578 -0.10832200199365616 0.7926260232925415 0.37200599908828735 -0.13160699605941772 0.9188529849052429
          0.7854790091514587 -0.028877999633550644 0.6182140111923218 0.9970229864120483 -0.012058000080287457 0.07615400105714798
          0.993332028388977 -0.0859609991312027 0.07682199776172638 0.919435977935791 -0.05820300057530403 0.3889090120792389
          0.9840499758720398 -0.12044300138950348 0.13091500103473663 0.4434739947319031 -0.3900209963321686 -0.8069790005683899
          0.4301399886608124 -0.3513120114803314 -0.8316010236740112 0.48360300064086914 -0.3323430120944977 -0.8097379803657532
          0.41662999987602234 -0.27939000725746155 -0.8650779724121094 0.3413040041923523 -0.17812900245189667 -0.9229199886322021
          0.4875980019569397 -0.37637999653816223 -0.7877730131149292 0.377703994512558 -0.23973600566387177 -0.8943529725074768
          0.8429419994354248 -0.2713389992713928 -0.46456900238990784 0.6680539846420288 -0.30095401406288147 -0.6805369853973389
          0.47894200682640076 -0.32659101486206055 -0.8148329854011536 0.967553973197937 -0.16792699694633484 -0.18878600001335144
          0.99481600522995 -0.039652999490499496 -0.09364400058984756 -0.4343869984149933 0.24205900728702545 0.8675919771194458
          -0.5937169790267944 0.14490200579166412 0.7915199995040894 -0.5582929849624634 0.001921999966725707 0.8296419978141785
          -0.7549660205841064 -0.14576999843120575 0.6393569707870483 -0.6989499926567078 -0.1349709928035736 0.7023190259933472
          -0.730076014995575 -0.18664099276065826 0.657384991645813 -0.7318199872970581 -0.21999099850654602 0.6450150012969971
          -0.6688680052757263 -0.14088599383831024 0.7299090027809143 -0.6591129899024963 -0.17512500286102295 0.7313699722290039
          -0.5184059739112854 -0.08159100264310837 0.8512340188026428 -0.3890779912471771 0.272381991147995 0.8800150156021118
          -0.3002240061759949 0.3197830021381378 0.8986679911613464 0.9455170035362244 0.1458899974822998 0.29105499386787415
          -0.28346601128578186 0.21038900315761566 0.9356189966201782 -0.3676599860191345 0.10189899802207947 0.924360990524292
          -0.1838199943304062 0.24995900690555573 0.9506480097770691 0.7483230233192444 0.20205900073051453 0.6318110227584839
          -0.12134499847888947 0.05087999999523163 0.9913049936294556 -0.9771019816398621 -0.13985200226306915 0.1603499948978424
          -0.8797129988670349 -0.07732699811458588 0.4691750109195709 -0.8050469756126404 -0.0160910002887249 0.5929930210113525
          -0.738752007484436 -0.04890500009059906 0.6722009778022766 -0.7101879715919495 -0.10602600127458572 0.6959819793701172
          -0.7473400235176086 -0.13725200295448303 0.6501110196113586 -0.7909259796142578 -0.05522200092673302 0.6094160079956055
          0.2608039975166321 -0.15485499799251556 -0.9528909921646118 0.5371119976043701 -0.24036100506782532 -0.8085409998893738
          0.5024849772453308 -0.1930910050868988 -0.8427479863166809 0.14469599723815918 -0.14205500483512878 -0.9792259931564331
          0.3539460003376007 -0.12206300348043442 -0.927266001701355 0.18900200724601746 -0.20545199513435364 -0.9602439999580383
          0.1485780030488968 -0.18664999306201935 -0.9711260199546814 -0.32473599910736084 -0.16287800669670105 -0.9316750168800354
          -0.14539499580860138 -0.25820401310920715 -0.9550870060920715 -0.12383099645376205 -0.1780720055103302 -0.9761949777603149
          -0.9768059849739075 -0.14687399566173553 -0.1558140069246292 -0.9769989848136902 -0.19391299784183502 -0.08871900290250778
          -0.956732988357544 -0.14271099865436554 -0.2535659968852997 -0.9824090003967285 -0.1842159926891327 -0.030625000596046448
          -0.8961520195007324 -0.165925994515419 -0.41155898571014404 -0.5067110061645508 -0.20252199470996857 -0.8379909992218018
          -0.7864580154418945 -0.16039800643920898 -0.5964530110359192 -0.9440439939498901 -0.13109000027179718 -0.30264800786972046
          -0.06182600185275078 -0.17373700439929962 0.9828490018844604 -0.07315000146627426 -0.1669670045375824 0.9832450151443481