<?xml version="1.0"?>
<VTKFile type="PolyData" version="0.1" byte_order="LittleEndian" header_type="UInt32" compressor="vtkZLibDataCompressor">
  <PolyData>
    <Piece NumberOfPoints="2662" NumberOfVerts="0" NumberOfLines="0" NumberOfStrips="0" NumberOfPolys="5320">
      <PointData Normals="Normals">
        <DataArray type="Float32" Name="Normals" NumberOfComponents="3" format="ascii" RangeMin="0.9999992619475733" RangeMax="1.0000008034607033">
          0.8023359775543213 -0.2709270119667053 0.531840980052948 0.7668399810791016 -0.04640699923038483 0.640159010887146
          0.6695970296859741 -0.31824401021003723 0.6710889935493469 0.6363469958305359 -0.5620110034942627 0.5284000039100647
          0.8414289951324463 -0.09385500103235245 0.5321549773216248 0.8566539883613586 -0.37063899636268616 0.3588460087776184
          0.7592089772224426 -0.4972360134124756 0.4199489951133728 0.6165949702262878 -0.22379399836063385 0.7548019886016846
          0.6787350177764893 -0.13110099732875824 0.722586989402771 0.7875930070877075 0.11270000040531158 0.6058019995689392
          0.8167049884796143 0.09047099947929382 0.5699189901351929 0.3992210030555725 -0.648157000541687 0.6484709978103638
          0.5323569774627686 -0.4149320125579834 0.7378529906272888 0.5798739790916443 -0.7673220038414001 0.2737930119037628
          0.4423539936542511 -0.7465819716453552 0.49692898988723755 0.8764150142669678 -0.20617200434207916 0.43518900871276855
          0.8063700199127197 0.049653999507427216 0.5893239974975586 0.7666599750518799 -0.5633509755134583 0.3080050051212311
          0.7411980032920837 -0.6629909873008728 0.10520599782466888 0.878449022769928 -0.44876599311828613 0.164124995470047
          0.508126974105835 -0.34898799657821655 0.7874100208282471 0.6837499737739563 -0.03751299902796745 0.7287520170211792
          0.5216919779777527 -0.3073189854621887 0.7958589792251587 0.607014000415802 -0.12966999411582947 0.7840409874916077
          0.47809499502182007 -0.2888279855251312 0.8294600248336792 0.6300250291824341 0.074925996363163 0.7729520201683044
          0.7915989756584167 0.10689599812030792 0.6016190052032471 0.6764690279960632 0.15209999680519104 0.7205939888954163
          0.8086509704589844 0.14611899852752686 0.5698540210723877 0.2612070143222809 -0.8754720091819763 0.40659600496292114
          0.13126400113105774 -0.8136500120162964 0.5663419961929321 0.3697110116481781 -0.6022949814796448 0.7074990272521973
          0.2022400051355362 -0.9777560234069824 0.05561500042676926 0.45688799023628235 -0.8894100189208984 -0.01424499973654747
          0.8359299898147583 -0.43859198689460754 0.32993701100349426 0.8222249746322632 -0.11249999701976776 0.55793297290802
          0.7421029806137085 0.07678800076246262 0.6658719778060913 0.4944480061531067 -0.8561220169067383 -0.1502559930086136
          0.7268040180206299 -0.6867830157279968 -0.009204999543726444 0.2967990040779114 -0.5391430258750916 0.7881850004196167
          0.42755499482154846 -0.12394600361585617 0.8954520225524902 0.33351099491119385 -0.33965399861335754 0.8794350028038025
          0.19811199605464935 -0.5038679838180542 0.8407549858093262 0.4820379912853241 -0.011183000169694424 0.8760790228843689
          0.656050980091095 0.07357600331306458 0.751121997833252 0.7804750204086304 0.11037500202655792 0.6153669953346252
          0.6669939756393433 -0.01091499999165535 0.7449830174446106 0.7397819757461548 -0.08099000155925751 0.6679549813270569
          0.796612024307251 -0.056412000209093094 0.6018530130386353 0.037571001797914505 -0.9608749747276306 0.2744219899177551
          0.013956000097095966 -0.7086700201034546 0.7054020166397095 -0.12452500313520432 -0.9065070152282715 0.4034090042114258
          -0.011618000455200672 -0.9959380030632019 0.08929099887609482 -0.06892599910497665 -0.995045006275177 -0.07165399938821793
          0.0797249972820282 -0.9854580163955688 -0.15005500614643097 0.19632400572299957 -0.9427729845046997 -0.26951199769973755
          0.7669389843940735 -0.6258469820022583 0.1418450027704239 0.8034390211105347 -0.523045003414154 0.2844470143318176
          0.7868880033493042 -0.2228119969367981 0.5754669904708862 0.7950999736785889 -0.3884449899196625 0.4657540023326874
          0.7168300151824951 0.010188000276684761 0.6971740126609802 0.2733190059661865 -0.9131029844284058 -0.30255699157714844
          0.43867000937461853 -0.8529189825057983 -0.28301599621772766 0.6599680185317993 -0.7260100245475769 -0.19326700270175934
          0.1939309984445572 -0.37763699889183044 0.9054179787635803 0.2837490141391754 -0.1504639983177185 0.9470199942588806
          0.4603610038757324 -0.09394200146198273 0.8827469944953918 0.7439560294151306 -0.002707999898120761 0.6682230234146118
          0.6962810158729553 0.09110700339078903 0.7119629979133606 0.42635801434516907 -0.08404199779033661 0.9006419777870178
          0.5643870234489441 -0.06297700107097626 0.823104977607727 0.760204017162323 -0.12501999735832214 0.6375420093536377
          0.7599920034408569 -0.1166590005159378 0.6393769979476929 0.6516370177268982 -0.07994099706411362 0.7543060183525085
          0.753961980342865 -0.11363200098276138 0.6470149755477905 -0.13197599351406097 -0.9805070161819458 0.14555999636650085
          -0.15979799628257751 -0.836234986782074 0.5245720148086548 -0.16953499615192413 -0.7396820187568665 0.6512510180473328
          0.047993000596761703 -0.5870749950408936 0.8081089854240417 -0.254595011472702 -0.8820549845695496 0.3964349925518036
          -0.2556680142879486 -0.942887008190155 0.21353499591350555 -0.019659999758005142 -0.9326320290565491 -0.360291987657547
          -0.10069700330495834 -0.9838060140609741 -0.1482740044593811 -0.15743499994277954 -0.9863479733467102 0.048285000026226044
          0.0005610000225715339 -0.9296979904174805 -0.3683229982852936 0.0040420000441372395 -0.9141960144042969 -0.40525200963020325
          0.1187409982085228 -0.8291040062904358 -0.5463399887084961 0.812487006187439 -0.5796419978141785 -0.06228800117969513
          0.8662909865379333 -0.4470770061016083 0.22284899652004242 0.8143100142478943 -0.36652499437332153 0.4500660002231598
          0.756305992603302 -0.11307799816131592 0.644370973110199 0.6798250079154968 0.03863300010561943 0.7323560118675232
          0.4240800142288208 -0.7561230063438416 -0.4984320104122162 0.6286420226097107 -0.65584397315979 -0.4179440140724182
          0.15919700264930725 -0.3973889946937561 0.9037359952926636 0.3435490131378174 -0.1971450001001358 0.9182090163230896
          0.29657799005508423 -0.1403069943189621 0.9446460008621216 0.6126189827919006 0.005776999983936548 0.7903580069541931
          0.7351049780845642 -0.10883300006389618 0.6691610217094421 0.6947770118713379 0.038013000041246414 0.7182199954986572
          0.7130249738693237 0.0756319984793663 0.697048008441925 0.20757800340652466 -0.039528001099824905 0.9774199724197388
          0.33531901240348816 0.015178999863564968 0.9419819712638855 0.7263839840888977 -0.05081700161099434 0.6854079961776733
          0.5596140027046204 0.03217199817299843 0.8281289935112 0.7895709872245789 -0.14112600684165955 0.5972099900245667
          0.7812939882278442 -0.01275699958205223 0.6240329742431641 0.7441859841346741 0.038816001266241074 0.6668429970741272
          -0.2788209915161133 -0.8376250267028809 0.46972599625587463 -0.1026960015296936 -0.6566669940948486 0.747156023979187
          -0.3144400119781494 -0.7561920285224915 0.5738480091094971 -0.30191001296043396 -0.8406720161437988 0.4495779871940613
          -0.23041200637817383 -0.9344069957733154 0.2716509997844696 -0.01462200004607439 -0.9724149703979492 -0.2327979952096939
          -0.04669899865984917 -0.850413978099823 -0.5240380167961121 -0.031883999705314636 -0.7885059714317322 -0.6141999959945679
          -0.03717799857258797 -0.9130730032920837 -0.40609800815582275 0.11543300002813339 -0.9869639873504639 0.11214999854564667
          -0.03574100136756897 -0.881866991519928 -0.4701409935951233 -0.009682999923825264 -0.7673829793930054 -0.6411160230636597
          -0.03948400169610977 -0.930823028087616 -0.36333200335502625 0.21320199966430664 -0.6954820156097412 -0.6861850023269653
          -0.02021699957549572 -0.6465399861335754 -0.7626129984855652 0.05680600181221962 -0.5479429960250854 -0.8345839977264404
          0.8335390090942383 -0.5178449749946594 -0.19248400628566742 0.9352800250053406 -0.3439539968967438 0.0833439975976944
          0.9062970280647278 -0.22810499370098114 0.355800986289978 0.8288270235061646 -0.17952999472618103 0.5299199819564819
          0.7604780197143555 -0.0067819999530911446 0.6493279933929443 0.386476993560791 -0.6272889971733093 -0.6761249899864197
          0.5571650266647339 -0.511339008808136 -0.6542930006980896 0.759926974773407 -0.525363028049469 -0.3827590048313141
          0.6729429960250854 -0.5090109705924988 -0.5367079973220825 0.16877500712871552 -0.3632949888706207 0.9162600040435791
          -0.014933999627828598 -0.5221310257911682 0.8527349829673767 0.243027001619339 -0.20859499275684357 0.9473260045051575
          0.1354600042104721 -0.09432800114154816 0.9862819910049438 0.6435340046882629 0.01512600015848875 0.7652680277824402
          0.7466819882392883 0.00456500006839633 0.6651650071144104 0.7887970209121704 -0.08913800120353699 0.6081550121307373
          0.7682870030403137 -0.17390799522399902 0.6160280108451843 0.8005849719047546 -0.1556600034236908 0.5786479711532593
          0.635263979434967 0.03655799850821495 0.7714290022850037 -0.05381900072097778 -0.027721000835299492 0.998166024684906
          -0.07124000042676926 -0.005638000089675188 0.9974430203437805 0.5701000094413757 0.10317599773406982 0.8150709867477417
          0.16163499653339386 0.0696600005030632 0.9843890070915222 0.34295499324798584 0.11776600033044815 0.9319409728050232
          0.6805070042610168 0.06653399765491486 0.7297139763832092 0.5736799836158752 0.1542699933052063 0.8044210076332092
          0.8297529816627502 -0.018332000821828842 0.5578299760818481 0.8364449739456177 0.17384600639343262 0.5197479724884033
          0.8073760271072388 0.20394299924373627 0.5536699891090393 0.7309200167655945 0.1413629949092865 0.6676620244979858
          -0.1839819997549057 -0.5703150033950806 0.800557017326355 -0.36371999979019165 -0.7875980138778687 0.4973909854888916
          -0.37217798829078674 -0.7154710292816162 0.5912569761276245 -0.17015400528907776 -0.8927519917488098 0.4171830117702484
          -0.2959420084953308 -0.7231749892234802 0.6240490078926086 -0.3103879988193512 -0.7012360095977783 0.6418160200119019
          -0.006694999989122152 -0.9197220206260681 0.3925139904022217 0.3200179934501648 -0.9032549858093262 -0.285863995552063
          0.018861999735236168 -0.940837025642395 -0.3383350074291229 0.05552700161933899 -0.8053339719772339 0.5902150273323059
          0.23194900155067444 -0.9283599853515625 0.29042598605155945 0.37007400393486023 -0.9270570278167725 0.06009000167250633
          0.4093630015850067 -0.891677975654602 -0.1932149976491928 0.06913500279188156 -0.9104779958724976 -0.40773698687553406
          -0.010100999847054482 -0.7941280007362366 -0.6076670289039612 0.1312599927186966 -0.6907070279121399 -0.7111219763755798
          0.0907600000500679 -0.5996699929237366 -0.7950839996337891 0.19416800141334534 -0.6211190223693848 -0.7592819929122925
          0.20359599590301514 -0.3951990008354187 -0.8957489728927612 0.023708000779151917 -0.35781800746917725 -0.933489978313446
          0.014833999797701836 -0.37006598711013794 -0.9288870096206665 0.2768779993057251 -0.5508790016174316 -0.787319004535675
          0.26315999031066895 -0.4183560013771057 -0.8693240284919739 0.03469099849462509 -0.3666369915008545 -0.9297170042991638
          0.13519400358200073 -0.3839220106601715 -0.9134150147438049 0.8100339770317078 -0.38165900111198425 -0.44517600536346436
          0.938539981842041 -0.31474700570106506 -0.1416970044374466 0.9809830188751221 -0.15166600048542023 0.12111599743366241
          0.9097380042076111 -0.098921999335289 0.40322500467300415 0.7438079714775085 0.05737600103020668 0.6659259796142578
          0.4235999882221222 -0.47960200905799866 -0.768468976020813 0.6248090267181396 -0.38171499967575073 -0.6811069846153259
          0.022228000685572624 -0.3132829964160919 0.949400007724762 0.11096899956464767 -0.14564700424671173 0.9830939769744873
          -0.016634000465273857 -0.06641899794340134 0.9976530075073242 0.6758599877357483 0.0587100014090538 0.7346879839897156
          0.8848890066146851 -0.0004959999932907522 0.4658010005950928 0.8210920095443726 0.06567899882793427 0.5670040249824524
          0.925741970539093 0.03479500114917755 0.3765510022640228 0.8983240127563477 0.08910000324249268 0.43020299077033997
          -0.30747300386428833 -0.035913001745939255 0.9508789777755737 -0.4205999970436096 -0.08350100368261337 0.9033949971199036
          -0.3879149854183197 -0.026142999529838562 0.9213240146636963 -0.38598600029945374 -0.0876379981637001 0.9183319807052612
          -0.18472999334335327 -0.07857000082731247 0.9796440005302429 0.11651299893856049 0.018787000328302383 0.993012011051178
          -0.08218400180339813 -0.08100900053977966 0.9933189749717712 0.6198679804801941 0.16996799409389496 0.7660769820213318
          0.6621519923210144 0.13211099803447723 0.7376319766044617 0.43479999899864197 0.0793360024690628 0.897026002407074
          0.2510620057582855 -0.007966999895870686 0.9679380059242249 0.3960379958152771 0.18117399513721466 0.9001830220222473
          0.5079870223999023 0.17623600363731384 0.8431429862976074 0.6976249814033508 0.1847579926252365 0.6922309994697571
          0.8967949748039246 0.25649499893188477 0.36051198840141296 0.8726810216903687 0.39418700337409973 0.28817400336265564
          0.78432697057724 0.18198400735855103 0.5930539965629578 0.8379110097885132 0.19244199991226196 0.5107560157775879
          0.8549190163612366 0.3427479863166809 0.3894059956073761 0.8930140137672424 0.2988330125808716 0.3364889919757843
          -0.4766710102558136 -0.5441219806671143 0.6904460191726685 -0.232915997505188 -0.4654639959335327 0.8538699746131897
          -0.4861370027065277 -0.6410970091819763 0.5938559770584106 -0.3680950105190277 -0.6328309774398804 0.6811990141868591
          -0.18852099776268005 -0.7977330088615417 0.5727850198745728 0.35213199257850647 -0.8687970042228699 -0.348131000995636
          0.8179619908332825 -0.5394930243492126 -0.19971400499343872 0.9564409852027893 -0.270004004240036 -0.11098500341176987
          0.12104800343513489 -0.8495470285415649 0.5134369730949402 0.005394000094383955 -0.6853169798851013 0.7282249927520752
          0.0009219999774359167 -0.7603669762611389 0.6494929790496826 -0.07268799841403961 -0.6452199816703796 0.7605310082435608
          0.023148000240325928 -0.6269680261611938 0.7787010073661804 0.22475199401378632 -0.966422975063324 0.124549001455307
          0.3829590082168579 -0.9225919842720032 0.046549998223781586 0.2497349977493286 -0.9237669706344604 0.2903220057487488
          0.08394400030374527 -0.8758280277252197 0.47526800632476807 0.507519006729126 -0.8447740077972412 -0.16965000331401825
          0.4670200049877167 -0.8216630220413208 -0.32674500346183777 0.36855998635292053 -0.8889420032501221 -0.271928995847702
          0.21640199422836304 -0.8002319931983948 -0.559283971786499 0.8546860218048096 -0.5002470016479492 -0.13879799842834473
          0.4398359954357147 -0.8577060103416443 -0.26624301075935364 0.39149099588394165 -0.6277980208396912 -0.6727589964866638
          0.24031700193881989 -0.5174509882926941 -0.821274995803833 0.525501012802124 -0.4236609935760498 -0.7378069758415222
          0.5117949843406677 -0.22016899287700653 -0.8304160237312317 0.02281700074672699 -0.25407901406288147 -0.9669139981269836
          0.3688639998435974 -0.21470999717712402 -0.9043449759483337 0.16729900240898132 -0.1991409957408905 -0.9655849933624268
          -0.013647999614477158 -0.2878040075302124 -0.9575920104980469 0.03630099818110466 -0.24026399850845337 -0.9700289964675903
          0.40701401233673096 -0.4014579951763153 -0.8204699754714966 0.3549099862575531 -0.3303090035915375 -0.8746060132980347
          0.29291000962257385 -0.29632100462913513 -0.909063994884491 0.2097889930009842 -0.24762800335884094 -0.9458690285682678
          0.8610230088233948 -0.17693200707435608 -0.4767970144748688 0.9320989847183228 -0.24009999632835388 -0.27118998765945435
          0.9945260286331177 -0.10439399629831314 0.004385000094771385 0.8987759947776794 0.01549800019711256 0.4381349980831146
          0.4618549942970276 -0.32315900921821594 -0.8259900212287903 0.6882050037384033 -0.22201499342918396 -0.6907119750976562
          -0.13321200013160706 -0.12400399893522263 0.9832990169525146 -0.1802390068769455 -0.30069100856781006 0.9365360140800476
          0.9544860124588013 0.1872429996728897 0.23215599358081818 0.9382359981536865 0.018845999613404274 0.3454830050468445
          0.868736982345581 0.08944100141525269 0.4871309995651245 0.9295899868011475 0.08629799634218216 0.3583509922027588
          0.9714699983596802 0.1882690042257309 0.14422400295734406 0.9372879862785339 0.3080649971961975 0.1630530059337616
          -0.39005398750305176 -0.10906700044870377 0.9143099784851074 -0.49419599771499634 -0.14020299911499023 0.8579710125923157
          -0.44661998748779297 -0.11082799732685089 0.8878329992294312 -0.454008013010025 -0.08130300045013428 0.8872799873352051
          -0.44598498940467834 -0.12947100400924683 0.8856269717216492 -0.3866339921951294 -0.1170400008559227 0.9147760272026062
          -0.48563501238822937 -0.09703800082206726 0.8687589764595032 -0.32356399297714233 -0.09615100175142288 0.9413080215454102
          -0.4151040017604828 -0.08150099962949753 0.9061160087585449 -0.23076699674129486 -0.10416799783706665 0.9674170017242432
          0.08930300176143646 -0.08745399862527847 0.9921579957008362 0.02711700089275837 -0.10757199674844742 0.9938269853591919
          -0.14816699922084808 -0.11929000169038773 0.9817410111427307 -0.26937800645828247 -0.14064699411392212 0.9527090191841125
          0.6183649897575378 0.1716099977493286 0.7669259905815125 0.43708500266075134 0.007034999784082174 0.8993930220603943
          0.5462430119514465 0.0595409981906414 0.8355079889297485 0.15321899950504303 -0.075593002140522 0.9852970242500305
          0.6787409782409668 0.1002890020608902 0.7274969816207886 0.7511529922485352 0.17450299859046936 0.6366459727287292
          0.8727260231971741 0.46967801451683044 0.1332390010356903 0.8561969995498657 0.48502200841903687 0.17799100279808044
          0.9145489931106567 0.39289799332618713 0.0960799977183342 0.876226007938385 0.471792995929718 -0.09818000346422195
          0.7890629768371582 0.6021850109100342 -0.12146200239658356 0.9183470010757446 0.24025799334049225 0.31450799107551575
          0.9315270185470581 0.17603500187397003 0.31822699308395386 0.836097002029419 0.09964299947023392 0.5394560098648071
          0.8402150273323059 0.09241099655628204 0.5343210101127625 0.9616979956626892 0.26162201166152954 0.08179300278425217
          -0.5573490262031555 -0.523563027381897 0.6443939805030823 -0.5130299925804138 -0.5199990272521973 0.6829349994659424
          -0.5320109724998474 -0.3873539865016937 0.7529410123825073 -0.3939250111579895 -0.4288119971752167 0.8129839897155762
          -0.05234299972653389 -0.5204430222511292 0.8522909879684448 -0.27294400334358215 -0.5404660105705261 0.7958629727363586
          -0.23262399435043335 -0.58992600440979 0.773222029209137 -0.1649239957332611 -0.8433290123939514 0.5114650130271912
          -0.2438569962978363 -0.6998460292816162 0.6713780164718628 -0.09341000020503998 -0.5027740001678467 0.8593559861183167
          0.41541799902915955 -0.8992720246315002 -0.13688400387763977 0.17538799345493317 -0.9793930053710938 0.10014600306749344
          0.8338099718093872 -0.5191469788551331 0.18774400651454926 -0.011319000273942947 -0.9706680178642273 0.24015599489212036
          0.0017770000267773867 -0.9104629755020142 0.4135870039463043 0.8330900073051453 -0.5187469720840454 0.19199800491333008
          0.40244901180267334 -0.6785200238227844 -0.614529013633728 0.5516989827156067 -0.7410680055618286 -0.3826819956302643
          0.5345820188522339 -0.6253139972686768 -0.5685110092163086 0.609503984451294 -0.5575500130653381 -0.5635989904403687
          0.621300995349884 -0.17381000518798828 -0.7640510201454163 0.4953489899635315 -0.3264949917793274 -0.8050029873847961
          0.5359050035476685 -0.47522100806236267 -0.6978330016136169 0.4670270085334778 -0.3935050070285797 -0.7918580174446106
          0.5252150297164917 -0.599124014377594 -0.6043170094490051 0.5979660153388977 -0.5996099710464478 -0.5318869948387146
          0.4515950083732605 -0.036097001284360886 -0.891493022441864 0.03309699892997742 -0.11872000247240067 -0.9923760294914246
          0.20833300054073334 0.05816899985074997 -0.9763270020484924 0.23962299525737762 -0.05266200006008148 -0.9694370031356812
          0.4407599866390228 -0.23331299424171448 -0.8667730093002319 0.31620800495147705 -0.13860100507736206 -0.9385110139846802
          0.3734689950942993 -0.13193899393081665 -0.9182119965553284 0.753832995891571 -0.01653899997472763 -0.6568580269813538
          0.9664769768714905 -0.09102900326251984 -0.24007700383663177 0.8856750130653381 0.06375999748706818 -0.45990800857543945
          0.9674249887466431 0.04903699830174446 -0.24836400151252747 0.9636880159378052 0.054117001593112946 0.26149100065231323
          0.9972950220108032 0.05852999910712242 -0.044463999569416046 0.6043030023574829 -0.04500799998641014 -0.7954819798469543
          -0.375449001789093 -0.26266801357269287 0.8888440132141113 -0.40897899866104126 -0.17670999467372894 0.8952710032463074
          0.9417080283164978 0.3361760079860687 -0.013093000277876854 0.9219279885292053 0.37880098819732666 -0.0809909999370575
          0.9776939749717712 0.12998299300670624 0.1649799942970276 0.939333975315094 0.3145509958267212 -0.13678500056266785
          0.8213059902191162 0.5688470005989075 -0.04322899878025055 -0.4937230050563812 -0.20514200627803802 0.8450760245323181
          -0.4258129894733429 -0.32514700293540955 0.8443710207939148 -0.3146660029888153 -0.0833820030093193 0.9455329775810242
          -0.40859800577163696 -0.11604300141334534 0.9053080081939697 -0.4570469856262207 -0.15024499595165253 0.8766610026359558
          -0.446384996175766 -0.13753800094127655 0.8842080235481262 -0.37077298760414124 -0.14400500059127808 0.9174910187721252
          -0.34665799140930176 -0.1438630074262619 0.9268940091133118 -0.347696989774704 -0.1405480057001114 0.9270129799842834
          -0.2649950087070465 -0.1359809935092926 0.954613983631134 0.010847000405192375 -0.08693499863147736 0.9961550235748291
          -0.3720349967479706 -0.13542799651622772 0.9182860255241394 0.5954099893569946 -0.001711999997496605 0.8034200072288513
          0.33005398511886597 -0.013824000023305416 0.9438610076904297 0.47851699590682983 0.0015940000303089619 0.87807697057724
          0.7920230031013489 0.01970599964261055 0.6101740002632141 0.7930030226707458 0.6003209948539734 -0.10373400151729584
          0.7725890278816223 0.6114550232887268 -0.1709659993648529 0.935600996017456 0.33064499497413635 -0.12379299849271774
          0.7818700075149536 0.50211101770401 -0.36954501271247864 0.8882880210876465 0.34123799204826355 -0.3074119985103607
          0.5792440176010132 0.6389570236206055 -0.5061720013618469 0.6476609706878662 0.6976019740104675 -0.3064109981060028
          0.9805880188941956 0.19271300733089447 0.03618500009179115 0.9636049866676331 0.16911600530147552 0.2070399969816208
          0.9037989974021912 0.08177900314331055 0.42006999254226685 0.9824860095977783 0.18228599429130554 0.03863399848341942
          0.8766430020332336 0.05473000183701515 0.47801798582077026 0.8428500294685364 0.03455299884080887 0.5370380282402039
          0.8856250047683716 0.03040199913084507 0.4634050130844116 0.9592120051383972 0.20582300424575806 -0.19377699494361877
          -0.4173629879951477 -0.5135120153427124 0.7497419714927673 0.06365299969911575 -0.40216198563575745 0.9133530259132385
          0.038805000483989716 -0.43555599451065063 0.8993250131607056 -0.12389899790287018 -0.4739519953727722 0.8717910051345825
          -0.36264801025390625 -0.41034001111984253 0.8367239832878113 -0.5691519975662231 -0.39511001110076904 0.7210779786109924
          -0.5298640131950378 -0.5004860162734985 0.6846590042114258 -0.4460139870643616 -0.577659010887146 0.6836529970169067
          -0.43880701065063477 -0.7630789875984192 0.4745100140571594 -0.42838001251220703 -0.8343480229377747 0.34692201018333435
          -0.23673999309539795 -0.9271829724311829 0.2903209924697876 0.09840399771928787 -0.9156469702720642 0.38975200057029724
          -0.4795219898223877 -0.6264510154724121 0.6145060062408447 -0.25957098603248596 -0.3594450056552887 0.8963379859924316
          -0.07938999682664871 -0.34586599469184875 0.934918999671936 0.10513599961996078 -0.9944570064544678 -0.0008900000248104334
          0.32129400968551636 -0.9136959910392761 -0.2488580048084259 0.5196840167045593 -0.7996079921722412 -0.3009229898452759
          0.09166599810123444 -0.9411190152168274 0.32541000843048096 0.8275499939918518 -0.516514003276825 0.2199389934539795
          -0.2367590069770813 -0.9715510010719299 0.005843000020831823 0.582269012928009 -0.6969460248947144 -0.4186039865016937
          0.5139549970626831 -0.23704299330711365 -0.8244150280952454 0.4920380115509033 -0.06556399911642075 -0.8681010007858276
          0.6081799864768982 -0.003667999990284443 -0.7937899827957153 0.2638759911060333 -0.2952289879322052 -0.9182649850845337
          0.3254449963569641 -0.2587519884109497 -0.9094690084457397 0.3864719867706299 -0.49378201365470886 -0.7789859771728516
          0.39243000745773315 -0.6065279841423035 -0.6914650201797485 0.28601399064064026 -0.3439050018787384 -0.8943849802017212
          0.4679900109767914 -0.774986982345581 -0.42471200227737427 0.4437670111656189 -0.7297660112380981 -0.5201079845428467
          0.29748600721359253 -0.7621989846229553 -0.5749390125274658 0.5900359749794006 0.12039600312709808 -0.7983499765396118
          0.4433630108833313 0.08241499960422516 -0.8925449848175049 0.01504599954932928 0.14956000447273254 -0.9886379837989807
          0.03907899931073189 0.09234800189733505 -0.9949600100517273 0.0853940024971962 0.28727099299430847 -0.9540349841117859
          0.453916996717453 0.21965700387954712 -0.8635450005531311 0.34584999084472656 0.1979299932718277 -0.9171760082244873
          0.46393099427223206 0.10601600259542465 -0.8795049786567688 0.2771559953689575 0.15911300480365753 -0.9475589990615845
          0.4661810100078583 -0.023932000622153282 -0.884365975856781 0.7673979997634888 0.0776820033788681 -0.636447012424469
          0.6707080006599426 0.10713899880647659 -0.733942985534668 0.8236950039863586 0.14529600739479065 -0.5481020212173462
          0.9260650277137756 0.18180200457572937 -0.33068299293518066 0.9720759987831116 0.18463599681854248 -0.14484000205993652
          0.8595319986343384 0.41617900133132935 -0.29664701223373413 0.7807390093803406 0.5761889815330505 -0.24177099764347076
          0.9027739763259888 0.3247799873352051 -0.2819879949092865 0.8152430057525635 0.40995699167251587 -0.40904098749160767
          0.7080240249633789 0.5414720177650452 -0.4533329904079437 0.5718550086021423 0.7109770178794861 -0.40926000475883484
          -0.21980899572372437 -0.43324801325798035 0.8740599751472473 -0.21019700169563293 -0.23741500079631805 0.9483940005302429
          -0.2982029914855957 -0.06242600083351135 0.9524589776992798 -0.35026800632476807 -0.03901499882340431 0.9358369708061218
          -0.33397600054740906 -0.04313400015234947 0.9415940046310425 -0.5189779996871948 -0.06282400339841843 0.8524760007858276
          -0.45057201385498047 -0.1525679975748062 0.8796060085296631 -0.493602991104126 -0.09342800080776215 0.864654004573822
          -0.6443459987640381 -0.08027499914169312 0.7605090141296387 -0.5517849922180176 -0.14433600008487701 0.8214010000228882
          -0.23512999713420868 -0.10259100049734116 0.9665340185165405 0.39048001170158386 -0.062178000807762146 0.9185090065002441
          0.3415899872779846 -0.06278999894857407 0.9377490282058716 -0.22602100670337677 -0.10336899757385254 0.9686229825019836
          0.12794800102710724 -0.004403000231832266 0.9917709827423096 -0.12842600047588348 -0.07436399906873703 0.9889270067214966
          -0.1499280035495758 -0.08052100241184235 0.9854130148887634 -0.4887920022010803 -0.111114002764225 0.8652949929237366
          0.5183129906654358 -0.03143399953842163 0.8546130061149597 0.7235850095748901 -0.02643200010061264 0.6897280216217041
          0.8791019916534424 -0.006926000118255615 0.47658300399780273 0.6290349960327148 0.6811919808387756 -0.3745569884777069
          0.5663020014762878 0.7408049702644348 -0.3612610101699829 0.7837589979171753 0.30663400888442993 -0.540090024471283
          0.6096180081367493 0.42528098821640015 -0.6689559817314148 0.8667539954185486 0.20750899612903595 -0.45351800322532654
          0.5111590027809143 0.6908329725265503 -0.5113379955291748 0.4258680045604706 0.6549580097198486 -0.6242330074310303
          0.45933300256729126 0.5404409766197205 -0.7049369812011719 0.41969001293182373 0.7262229919433594 -0.5444819927215576
          0.9473729729652405 0.18291999399662018 -0.2627260088920593 0.9878119826316833 0.08250600099563599 0.13198299705982208