<?xml version="1.0"?>
<VTKFile type="PolyData" version="0.1" byte_order="LittleEndian" header_type="UInt32" compressor="vtkZLibDataCompressor">
  <PolyData>
    <Piece NumberOfPoints="1502" NumberOfVerts="0" NumberOfLines="0" NumberOfStrips="0" NumberOfPolys="3001">
      <PointData Normals="Normals">
        <DataArray type="Float32" Name="Normals" NumberOfComponents="3" format="ascii" RangeMin="0.9999992760373014" RangeMax="1.0000007671750033">
          0.9623240232467651 -0.02768399938941002 -0.2704930007457733 0.9685180187225342 -0.0138330003246665 -0.24855799973011017
          0.9317740201950073 0.006926000118255615 0.36297398805618286 0.9801459908485413 -0.060231998562812805 -0.1889059990644455
          0.8779540061950684 -0.004705999977886677 -0.4787209928035736 0.8670210242271423 -0.03751000016927719 -0.49685800075531006
          0.971780002117157 0.008231000043451786 -0.23574699461460114 0.8676159977912903 -0.02891699969768524 0.49639400839805603
          0.9780830144882202 -0.03697400167584419 -0.20490799844264984 0.38645899295806885 0.018077999353408813 0.9221289753913879
          -0.04949000105261803 0.030124999582767487 0.9983199834823608 0.7625470161437988 0.046073999255895615 0.6452909708023071
          -0.036469001322984695 0.06411000341176987 0.9972760081291199 0.9936149716377258 0.03142400085926056 -0.10835900157690048
          0.8946110010147095 -0.07908400148153305 -0.4397920072078705 0.9372869729995728 -0.09134499728679657 -0.33637699484825134
          0.928367018699646 0.0031709999311715364 -0.3716509938240051 0.7686089873313904 -0.008352999575436115 -0.6396639943122864
          0.7209489941596985 -0.02854900062084198 -0.6923999786376953 0.7247210144996643 -0.041839998215436935 -0.6877710223197937
          0.9717010259628296 -0.05070900171995163 0.23070700466632843 0.6335849761962891 0.024935999885201454 0.7732710242271423
          0.9677839875221252 -0.043779999017715454 -0.24794499576091766 0.07242099940776825 0.05967500060796738 0.9955869913101196
          -0.3251729905605316 0.04423300176858902 0.9446189999580383 -0.4557330012321472 0.024723000824451447 0.8897730112075806
          -0.42973700165748596 0.043887000530958176 0.9018869996070862 0.007170000113546848 0.02761700004339218 0.9995930194854736
          0.6706600189208984 0.03064100071787834 0.7411320209503174 0.9925559759140015 0.04768500104546547 -0.11206799745559692
          -0.3259649872779846 0.029921000823378563 0.9449080228805542 -0.3732779920101166 0.057523999363183975 0.9259340167045593
          0.9496139883995056 0.04036400094628334 -0.3108130097389221 0.8250250220298767 -0.09452500194311142 -0.5571349859237671
          0.9236509799957275 -0.06943999975919724 -0.37689200043678284 0.7942699790000916 0.04254100099205971 -0.6060730218887329
          0.618403971195221 0.05239799991250038 -0.7841110229492188 0.5931040048599243 -0.019711000844836235 -0.8048840165138245
          0.5791810154914856 -0.022265000268816948 -0.81489497423172 0.5875620245933533 0.006864999886602163 -0.809149980545044
          0.7965239882469177 -0.05423799902200699 -0.6021689772605896 0.9950379729270935 -0.03838000074028969 0.09179999679327011
          0.52217698097229 0.011446000076830387 0.8527609705924988 0.1832430064678192 0.059595998376607895 0.9812589883804321
          -0.37644100189208984 0.061817001551389694 0.9243760108947754 -0.5673310160636902 0.02459299936890602 0.8231220245361328
          -0.6197130084037781 0.041446998715400696 0.7837330102920532 -0.6403629779815674 0.09741099923849106 0.7618700265884399
          0.07215999811887741 0.02688100002706051 0.9970309734344482 -0.13701899349689484 -0.026153000071644783 0.9902229905128479
          0.9065030217170715 -0.004141999874264002 0.4221790134906769 0.8949450254440308 0.05825499817728996 -0.44235700368881226
          -0.5368649959564209 -0.003976000007241964 0.843658983707428 0.776790976524353 0.06855200231075287 -0.6260160207748413
          0.9664099812507629 0.022732999175786972 -0.25600001215934753 0.5519930124282837 0.11180099844932556 -0.8263199925422668
          0.46841299533843994 0.021290000528097153 -0.8832529783248901 0.4663420021533966 0.14545300602912903 -0.8725640177726746
          0.4668309986591339 -0.00584500003606081 -0.8843269944190979 0.4226210117340088 0.04930799826979637 -0.904964029788971
          0.31400400400161743 0.08431100100278854 -0.945671021938324 0.6685370206832886 0.006829000078141689 -0.7436469793319702
          0.4790700078010559 0.014189999550580978 -0.8776620030403137 0.5743529796600342 0.05385600030422211 0.8168349862098694
          -0.17969900369644165 0.04068800061941147 0.9828799962997437 -0.12243500351905823 0.05939599871635437 0.990697979927063
          -0.3806900084018707 0.07967600226402283 0.9212639927864075 -0.7734299898147583 0.010617000050842762 0.6337929964065552
          -0.782755970954895 0.03171499818563461 0.6215199828147888 -0.7781149744987488 0.060412999242544174 0.6252099871635437
          -0.8373270034790039 0.14318500459194183 0.5276179909706116 -0.786300003528595 0.20637500286102295 0.5823580026626587
          -0.49564000964164734 0.11830999702215195 0.8604320287704468 -0.8688660264015198 0.12680499255657196 0.47853100299835205
          -0.5134159922599792 -0.027834000065922737 0.8576880097389221 0.05882300063967705 -0.06687500327825546 0.9960259795188904
          0.8967530131340027 -0.12327399849891663 0.4250139892101288 0.9534109830856323 -0.11907099932432175 -0.2771799862384796
          0.909807026386261 -0.008917000144720078 -0.41493600606918335 0.6258140206336975 0.056550998240709305 -0.7779200077056885
          0.5719580054283142 0.007249000016599894 -0.8202509880065918 -0.7483109831809998 -0.01358100026845932 0.6632090210914612
          0.9725210070610046 0.1240909993648529 -0.19698700308799744 0.8329020142555237 0.043122999370098114 -0.5517380237579346
          0.7654079794883728 0.06953500211238861 -0.6397780179977417 0.8154839873313904 0.1579730063676834 0.5568040013313293
          0.37405499815940857 0.08705499768257141 -0.9233120083808899 0.291826993227005 0.18853500485420227 -0.9377049803733826
          -0.1170480027794838 0.04294300079345703 -0.9921969771385193 -0.11616700142621994 0.16136400401592255 -0.9800339937210083
          0.12332800030708313 0.062210001051425934 -0.990414023399353 0.2257000058889389 0.10638400167226791 -0.9683709740638733
          -0.03429599851369858 0.14104899764060974 -0.989408016204834 0.38133901357650757 0.0749019980430603 -0.921396017074585
          0.5472530126571655 0.011433999985456467 -0.8368890285491943 0.4992539882659912 0.04789099842309952 -0.8651310205459595
          0.4335840046405792 0.07712800055742264 -0.8978059887886047 0.507440984249115 0.07586299628019333 -0.8583409786224365
          0.6917489767074585 -0.009537000209093094 -0.7220749855041504 -0.07242800295352936 0.12186499685049057 0.9899010062217712
          -0.3210330009460449 0.09046699851751328 0.9427369832992554 -0.8960790038108826 0.00928799994289875 0.4437980055809021
          -0.888463020324707 0.047088999301195145 0.4565269947052002 -0.8804159760475159 0.08384999632835388 0.4667310118675232
          -0.9337909817695618 0.35736000537872314 -0.018140999600291252 -0.9684749841690063 0.22827699780464172 0.09973099827766418
          -0.9185360074043274 0.16880600154399872 0.35748499631881714 -0.6418589949607849 0.10773999989032745 0.7592160105705261
          -0.8576930165290833 0.26517200469970703 0.4405069947242737 -0.8430349826812744 0.10041800141334534 0.5284010171890259
          -0.402866005897522 0.10286600142717361 0.9094600081443787 -0.28448501229286194 0.11320500075817108 0.951973021030426
          -0.3102000057697296 0.10754399746656418 0.9445689916610718 -0.9353560209274292 0.10984200239181519 0.33622100949287415
          -0.9491389989852905 0.18089599907398224 0.2577050030231476 -0.5110840201377869 -0.05614500120282173 0.8576949834823608
          -0.7304959893226624 -0.029193999245762825 0.6822919845581055 0.17832499742507935 -0.0744210034608841 0.9811530113220215
          -0.4120120108127594 -0.06129400059580803 0.9091140031814575 0.6099299788475037 -0.2332790046930313 0.7573419809341431
          0.9395300149917603 -0.18626900017261505 -0.2873780131340027 0.8126580119132996 -0.08396399766206741 -0.5766609907150269
          0.8425099849700928 -0.14629200100898743 -0.5184360146522522 0.4126009941101074 -0.02299799956381321 -0.9106209874153137
          0.2040960043668747 -0.005319000221788883 -0.9789360165596008 0.6516860127449036 -0.044610001146793365 -0.7571759819984436
          -0.40303000807762146 0.10633700340986252 -0.9089879989624023 -0.9016929864883423 -0.005419000051915646 0.4323430061340332
          0.8994659781455994 0.053530000150203705 -0.43369901180267334 0.9807969927787781 0.1551000028848648 0.11824200302362442
          0.9891200065612793 0.12896500527858734 -0.07077900320291519 0.7970179915428162 -0.06374599784612656 -0.6005820035934448
          0.9701679944992065 0.08021199703216553 -0.22878000140190125 0.7240089774131775 0.017899999395012856 -0.6895580291748047
          0.5879359841346741 0.1821500062942505 0.7881320118904114 -0.9039210081100464 0.15031099319458008 -0.4004170000553131
          -0.9409649968147278 0.07327999919652939 -0.33047598600387573 -0.9838839769363403 0.09356100112199783 -0.15237900614738464
          -0.9991329908370972 0.0389380007982254 -0.014702999964356422 -0.9177790284156799 0.18947100639343262 -0.34897398948669434
          0.0740630030632019 0.2042980045080185 -0.9761030077934265 -0.6647760272026062 0.29437801241874695 -0.6865959763526917
          0.23668499290943146 0.1635109931230545 -0.9577289819717407 0.38423898816108704 0.004486999940127134 -0.9232230186462402
          0.39475199580192566 -0.07942699640989304 -0.9153479933738708 0.1104310005903244 -0.12084200233221054 -0.9865099787712097
          0.27821800112724304 0.06553400307893753 -0.9582800269126892 0.6948369741439819 -0.11195900291204453 -0.7103989720344543
          0.5818449854850769 -0.11915100365877151 -0.8045240044593811 0.6667760014533997 -0.14409999549388885 -0.731194019317627
          0.09276899695396423 0.14817500114440918 0.9846000075340271 -0.9214609861373901 -0.001032999949529767 0.38846901059150696
          -0.9126399755477905 0.031098999083042145 0.4075790047645569 -0.9148330092430115 0.060968998819589615 0.39920398592948914
          -0.860388994216919 0.504235029220581 -0.07401499897241592 -0.8730360269546509 0.3595770001411438 -0.3294129967689514
          -0.37557899951934814 0.4198229908943176 -0.8262500166893005 -0.591090977191925 0.012008000165224075 0.8065159916877747
          -0.8023499846458435 0.031031999737024307 0.5960469841957092 -0.8420590162277222 0.06891699880361557 0.5349640250205994
          -0.902014970779419 0.31676000356674194 0.29331299662590027 -0.8703230023384094 0.2411459982395172 0.42940399050712585
          -0.9131410121917725 0.02217100001871586 0.4070410132408142 -0.9065650105476379 0.06817600131034851 0.4165250062942505
          -0.42293301224708557 -0.037078000605106354 0.9054020047187805 -0.1344580054283142 0.12718899548053741 0.9827229976654053
          -0.5566120147705078 -0.0009619999909773469 0.8307719826698303 0.15445899963378906 0.16259099543094635 0.9745290279388428
          -0.5693910121917725 0.10316800326108932 0.8155679702758789 -0.15917900204658508 0.16781799495220184 0.9728819727897644
          0.21699899435043335 0.19935700297355652 0.955597996711731 -0.7448189854621887 -0.058559998869895935 0.6646919846534729
          -0.9209010004997253 -0.03458600118756294 0.38825899362564087 -0.3097270131111145 -0.0415400005877018 0.9499179720878601
          0.048569001257419586 -0.02927899919450283 0.9983909726142883 -0.681102991104126 -0.0685650035738945 0.7289699912071228
          0.5760530233383179 -0.5799279808998108 0.576062023639679 -0.3057830035686493 -0.14721399545669556 0.940650999546051
          -0.05044800043106079 -0.06165099889039993 0.9968219995498657 0.9832410216331482 -0.13879600167274475 -0.11820399761199951
          0.7505390048027039 0.013705999590456486 -0.6606829762458801 0.7638400197029114 -0.07455699890851974 -0.6410850286483765
          0.14288799464702606 0.011086000129580498 -0.9896770119667053 0.39364001154899597 0.0174150001257658 -0.9190999865531921
          -0.5053489804267883 0.06491199880838394 -0.8604699969291687 -0.8240789771080017 0.049612998962402344 -0.5642989873886108
          0.5635669827461243 -0.001496999990195036 -0.8260689973831177 -0.9855049848556519 -0.040192000567913055 0.16481900215148926
          -0.9463289976119995 -0.004335999954491854 0.32317501306533813 0.8004360198974609 0.14286699891090393 0.5821430087089539
          0.8261950016021729 -0.05379600077867508 -0.5608100295066833 0.7614730000495911 -0.2839280068874359 -0.5827040076255798
          0.7565240263938904 -0.1665000021457672 -0.6324160099029541 0.9864869713783264 0.1483989953994751 0.06943599879741669
          0.9750480055809021 0.012436999939382076 -0.22164499759674072 0.8092979788780212 0.20057499408721924 0.5520920157432556
          0.07576899975538254 0.259674996137619 -0.9627190232276917 -0.0703049972653389 0.3274720013141632 -0.9422420263290405
          0.3098219931125641 -0.04328300058841705 -0.9498090147972107 0.14406399428844452 -0.0787540003657341 -0.9864299893379211
          0.41173499822616577 -0.19408799707889557 -0.890395998954773 -0.014070999808609486 -0.1600479930639267 -0.9870089888572693
          -0.23309800028800964 -0.12436799705028534 -0.9644680023193359 -0.017116999253630638 -0.226283997297287 -0.9739109873771667
          -0.38544198870658875 -0.2214599996805191 -0.895762026309967 0.1745380014181137 0.17344799637794495 -0.9692530035972595
          0.8462439775466919 -0.1522500067949295 -0.5105779767036438 0.7115229964256287 -0.08859000355005264 -0.697055995464325
          0.32389000058174133 -0.13048599660396576 -0.9370530247688293 -0.8639169931411743 0.46738600730895996 -0.18761000037193298
          -0.5356860160827637 -0.07887999713420868 0.8407250046730042 -0.724702000617981 0.08544699847698212 0.6837440133094788
          -0.8907399773597717 0.1440420001745224 0.431084007024765 -0.8635280132293701 -0.037671998143196106 0.502892017364502
          -0.8424080014228821 0.220987007021904 0.4914399981498718 -0.8717899918556213 -0.07657399773597717 0.48385900259017944
          -0.9357640147209167 0.1858839988708496 0.2996560037136078 -0.9980469942092896 0.037744998931884766 0.04976699873805046
          -0.5992529988288879 0.015193000435829163 0.8004149794578552 -0.6213250160217285 -0.1244489997625351 0.7736070156097412
          0.6969159841537476 0.23472699522972107 0.6776509881019592 -0.32545700669288635 -0.066041000187397 0.9432479739189148
          0.8328409790992737 0.1870959997177124 0.5209320187568665 0.37064000964164734 -0.2067369967699051 0.9054750204086304
          -0.9408860206604004 -0.06282500177621841 0.3328459858894348 -0.8749459981918335 -0.0716250017285347 0.4788939952850342
          -0.24280300736427307 -0.024190999567508698 0.9697740077972412 -0.5803639888763428 -0.0572890006005764 0.8123400211334229
          -0.8913699984550476 -0.0635790005326271 0.44879499077796936 -0.37234801054000854 -0.8673449754714966 -0.33025699853897095
          0.9269899725914001 -0.05392900109291077 -0.3711889982223511 -0.33958700299263 -0.04656200110912323 0.9394209980964661
          -0.8728709816932678 -0.07014600187540054 0.4828830063343048 -0.12596499919891357 -0.0849590003490448 0.9883900284767151
          -0.20350900292396545 -0.04459400102496147 0.9780570268630981 0.7999119758605957 0.2510179877281189 -0.5450969934463501
          0.5886080265045166 0.06676500290632248 -0.8056570291519165 0.07450199872255325 0.07175199687480927 -0.9946359992027283
          -0.6237769722938538 0.09003400057554245 -0.7763990163803101 0.3435870110988617 0.12094400078058243 -0.9312999844551086
          -0.9969419836997986 -0.023895999416708946 0.07439900189638138 0.8031780123710632 -0.5096399784088135 -0.3084999918937683
          0.6154490113258362 -0.769694983959198 -0.16968199610710144 0.856764018535614 -0.4318369925022125 -0.2819089889526367
          0.8950260281562805 -0.2490530014038086 0.37000200152397156 -0.7625560164451599 0.5716220140457153 -0.30291399359703064
          -0.20956100523471832 0.3972179889678955 -0.8934779763221741 0.4694870114326477 0.0803069993853569 -0.8792799711227417
          0.24470500648021698 -0.4530630111694336 -0.8572360277175903 0.6255760192871094 -0.06959699839353561 -0.7770519852638245
          -0.13641899824142456 -0.20339399576187134 -0.9695469737052917 -0.4735339879989624 -0.1434040069580078 -0.8690230250358582
          -0.2795479893684387 -0.4278610050678253 -0.8595280051231384 -0.3271529972553253 -0.3355160057544708 -0.8834030032157898
          -0.3915340006351471 -0.19266200065612793 -0.8997679948806763 -0.5652629733085632 -0.2501780092716217 -0.7860590219497681
          0.11198599636554718 0.2051050066947937 -0.9723119735717773 -0.16315999627113342 0.3297030031681061 -0.9298790097236633
          0.8612390160560608 -0.08760499954223633 -0.5005930066108704 0.9605770111083984 -0.22031299769878387 -0.16956999897956848
          0.9688079953193665 -0.1481180042028427 -0.1986750066280365 0.615710973739624 -0.061135999858379364 -0.7855960130691528
          0.05346899852156639 -0.07207199931144714 -0.9959650039672852 -0.30768799781799316 -0.0649930015206337 -0.9492650032043457
          -0.40904200077056885 -0.12403800338506699 -0.9040459990501404 -0.3545849919319153 -0.1737069934606552 -0.9187470078468323
          -0.5800439715385437 -0.11099400371313095 0.8069869875907898 -0.6585170030593872 -0.011996000073850155 0.7524700164794922
          -0.6309040188789368 -0.4524089992046356 0.6303070187568665 -0.6297479867935181 -0.23243199288845062 0.7412109971046448
          -0.6831279993057251 -0.2714729905128479 0.6779659986495972 -0.8152790069580078 0.08035100251436234 0.5734670162200928
          -0.8554409742355347 0.30816400051116943 0.41624000668525696 -0.8629080057144165 0.254146009683609 0.43680599331855774
          -0.7381740212440491 -0.05240499973297119 0.6725710034370422 -0.7683429718017578 -0.3199549913406372 0.5543270111083984
          -0.6118630170822144 -0.1155019998550415 -0.7824850082397461 -0.9768499732017517 0.12386299669742584 0.17442099750041962
          -0.49083900451660156 -0.8317210078239441 -0.2594580054283142 -0.3187829852104187 -0.2233870029449463 -0.9211270213127136
          -0.6045650243759155 -0.08918499946594238 0.7915470004081726 -0.47024399042129517 -0.13737699389457703 0.8717790246009827
          -0.19594399631023407 -0.6315590143203735 0.7501590251922607 -0.07243099808692932 -0.6488850116729736 0.7574309706687927
          0.39834100008010864 -0.8555610179901123 0.3306649923324585 -0.452767014503479 -0.06611999869346619 0.8891739845275879
          -0.8208739757537842 -0.06823000311851501 0.5670179724693298 -0.9906880259513855 0.03095499984920025 -0.13258999586105347
          -0.9312639832496643 -0.12055599689483643 0.34382200241088867 -0.7275140285491943 -0.587939977645874 -0.35362300276756287
          0.4478110074996948 -0.2883009910583496 -0.8463730216026306 0.28039801120758057 -0.22544099390506744 -0.9330350160598755
          0.3297939896583557 0.04435199871659279 -0.9430109858512878 0.5491470098495483 0.2187580019235611 -0.8065869808197021
          0.8210669755935669 0.20500899851322174 -0.5327479839324951 -0.6248520016670227 -0.3626280128955841 0.6914200186729431
          -0.06357699632644653 -0.2923460006713867 0.9541969895362854 -0.9406870007514954 -0.14397400617599487 0.3072119951248169
          -0.1730789989233017 -0.09517399966716766 0.9802989959716797 -0.30548998713493347 -0.09877800196409225 0.9470580220222473
          0.4900810122489929 0.1882759928703308 -0.8511009812355042 0.5373730063438416 0.17439299821853638 -0.8251169919967651
          0.10282400250434875 0.14667199552059174 -0.9838269948959351 -0.5636739730834961 0.10424000024795532 -0.81939297914505
          0.2512800097465515 -0.965533971786499 0.06784900277853012 0.6545910239219666 -0.7198920249938965 0.2307959944009781
          0.9480559825897217 -0.30494800209999084 -0.09053599834442139 -0.8579999804496765 0.3055190145969391 0.41291001439094543
          -0.7246699929237366 0.46970099210739136 -0.5042170286178589 0.5018600225448608 0.04728899896144867 -0.8636549711227417
          0.7494310140609741 -0.44282299280166626 -0.49219998717308044 0.5839020013809204 -0.04372800141572952 -0.8106449842453003
          -0.6920369863510132 -0.19687199592590332 -0.6944969892501831 -0.5340520143508911 -0.5123680233955383 -0.6725080013275146
          -0.8482810258865356 -0.5055570006370544 -0.15758100152015686 -0.3317070007324219 0.3931570053100586 -0.8575530052185059
          0.6926000118255615 -0.07712200284004211 -0.7171869874000549 0.9110490083694458 -0.12933799624443054 -0.3914850056171417
          0.9216949939727783 -0.23464299738407135 0.3089039921760559 0.8932870030403137 -0.27139100432395935 0.3583090007305145
          0.9778599739074707 -0.20676299929618835 -0.032218001782894135 0.8918529748916626 -0.2779270112514496 0.35686901211738586
          0.6008560061454773 -0.02526799961924553 -0.7989580035209656 -0.003111999947577715 -0.01317100040614605 -0.9999079704284668
          -0.8368260264396667 -0.02325800061225891 -0.5469750165939331 -0.9389879703521729 -0.1397639960050583 -0.31427401304244995
          -0.8959980010986328 -0.07267899811267853 -0.4380689859390259 -0.8665480017662048 -0.19808800518512726 -0.45809999108314514
          -0.7176650166511536 -0.1673240065574646 0.6759870052337646 -0.8573489785194397 -0.24761900305747986 0.4512630105018616
          -0.5887719988822937 -0.7770270109176636 0.22265799343585968 -0.9475259780883789 -0.30972498655319214 0.0791580006480217
          -0.7482119798660278 -0.6515650153160095 0.12506599724292755 -0.3876749873161316 -0.09303200244903564 0.9170889854431152
          0.8994389772415161 -0.4354510009288788 0.037303999066352844 -0.32790300250053406 -0.19599199295043945 0.9241570234298706
          -0.5946099758148193 -0.09829200059175491 0.7979840040206909 0.4849720001220703 -0.36740800738334656 0.7936080098152161
          0.97291499376297 -0.04434499889612198 0.22686900198459625 -0.731253981590271 -0.06585399806499481 0.6789190173149109
          -0.9547070264816284 -0.0028379999566823244 -0.2975330054759979 -0.8506900072097778 -0.21485699713230133 0.4797540009021759
          -0.8719149827957153 -0.17258599400520325 0.4582340121269226 -0.8643199801445007 -0.3716770112514496 0.33883100748062134
          0.2936150133609772 -0.5148149728775024 -0.8054540157318115 -0.29688000679016113 -0.8558099865913391 -0.42361798882484436
          0.9196280241012573 -0.14066000282764435 -0.36674100160598755 0.6851119995117188 -0.0332069993019104 -0.7276800274848938
          0.8170400261878967 -0.39441201090812683 -0.4205780029296875 0.4599989950656891 0.04661700129508972 -0.8866950273513794
          0.3864409923553467 0.19806499779224396 -0.9007959961891174 0.3302899897098541 0.17375299334526062 -0.92774897813797
          0.596422016620636 0.011099999770522118 -0.802594006061554 0.8023589849472046 0.05477600172162056 -0.5943229794502258
          0.6727849841117859 0.08191700279712677 -0.7352889776229858 -0.8356149792671204 -0.42551299929618835 0.3473989963531494
          -0.40092000365257263 -0.643172025680542 0.6523749828338623 -0.3599810004234314 -0.5276950001716614 0.7693840265274048
          -0.4012089967727661 -0.17936299741268158 0.8982539772987366 -0.5004460215568542 -0.1753460019826889 0.8478249907493591
          0.9475799798965454 -0.02431200072169304 0.3185940086841583 0.42569801211357117 0.027515999972820282 -0.9044470191001892
          -0.18985700607299805 -0.015804000198841095 -0.9816840291023254 0.9132159948348999 -0.3488610088825226 0.21055300533771515
          -0.7701039910316467 0.3071820139884949 0.5590879917144775 -0.3514519929885864 0.2003529965877533 0.9145159721374512
          -0.818638026714325 0.42340099811553955 0.38802599906921387 0.7751060128211975 -0.2388100028038025 -0.5849630236625671
          0.2588230073451996 0.04140299931168556 -0.9650369882583618 -0.968451976776123 -0.190420001745224 0.16075000166893005
          -0.7175530195236206 0.4805459976196289 -0.5041760206222534 0.9266970157623291 -0.10768400132656097 -0.3600519895553589
          0.13656799495220184 -0.24710600078105927 0.9593160152435303 0.20510199666023254 -0.3632049858570099 0.9088540077209473
          0.7549629807472229 -0.2578609883785248 0.6029419898986816 0.9870970249176025 -0.11072199791669846 0.11567600071430206
          0.9380369782447815 0.19383500516414642 -0.2872549891471863 0.38244500756263733 0.19955599308013916 -0.9021710157394409
          -0.9178670048713684 0.034609001129865646 -0.3953759968280792 -0.4211469888687134 0.2724280059337616 -0.8651120066642761
          -0.9750189781188965 -0.03389199823141098 0.2195190042257309 -0.9950630068778992 -0.04149800166487694 0.09014999866485596
          -0.906466007232666 -0.06185400113463402 0.41772401332855225 -0.8179500102996826 -0.1507740020751953 0.555180013179779
          -0.6876040101051331 -0.17993299663066864 0.7034379839897156 -0.8064249753952026 -0.054405998438596725 0.5888280272483826
          -0.9057700037956238 -0.1424659937620163 0.3991050124168396 -0.023076999932527542 0.27879801392555237 0.9600719809532166
          0.986499011516571 -0.15913799405097961 -0.03866500034928322 0.8918390274047852 -0.40563300251960754 -0.2002120018005371
          -0.5155680179595947 -0.1648699939250946 0.8408370018005371 0.9742590188980103 -0.007083000149577856 0.2253199964761734
          -0.9595569968223572 -0.10087999701499939 -0.26281699538230896 -0.6689580082893372 -0.14055800437927246 0.7298889756202698
          -0.9248530268669128 -0.08077900111675262 0.371645987033844 -0.6405500173568726 -0.7316190004348755 -0.23330000042915344
          -0.7876049876213074 -0.6156669855117798 -0.025141000747680664 -0.5999360084533691 -0.3550429940223694 0.7169529795646667
          -0.503807008266449 -0.09334000200033188 0.8587589859962463 -0.6140379905700684 -0.21052800118923187 0.7606809735298157
          -0.5537620186805725 -0.6455649733543396 0.5259220004081726 0.37801599502563477 -0.9255139827728271 0.022987000644207
          0.9784539937973022 0.014368000440299511 -0.20596300065517426 0.862155020236969 0.11339399963617325 -0.4937930107116699
          0.5861939787864685 0.13264800608158112 -0.7992380261421204 0.9360479712486267 -0.1342490017414093 0.32525500655174255
          0.8046810030937195 -0.51351398229599 0.29798001050949097 0.32981398701667786 0.2206050008535385 -0.9179090261459351
          0.5056319832801819 -0.04239699989557266 -0.8617069721221924 0.509818971157074 -0.15044699609279633 -0.8470240235328674
          0.559149980545044 -0.17044499516487122 -0.8113570213317871 0.6882550120353699 -0.16311900317668915 -0.7068930268287659
          0.6261159777641296 -0.08866000175476074 -0.7746729850769043 0.47401100397109985 -0.03887400031089783 -0.8796600103378296
          -0.537559986114502 -0.8431730270385742 0.009380999952554703 -0.32958900928497314 -0.9133859872817993 0.2389499992132187
          -0.5260120034217834 -0.24872200191020966 0.8132950067520142 -0.3878119885921478 -0.8815910220146179 0.2690719962120056
          -0.6516810059547424 -0.4805369973182678 0.5868539810180664 0.4234539866447449 -0.027540000155568123 -0.9054989814758301
          0.31346800923347473 -0.029160000383853912 -0.9491509795188904 -0.9042019844055176 -0.24090099334716797 -0.35268300771713257
          -0.13583000004291534 -0.12262199819087982 -0.983115017414093 -0.4940800070762634 0.23691700398921967 0.8365139961242676
          -0.8574889898300171 0.44481900334358215 0.2585510015487671 0.33357998728752136 0.48976001143455505 0.8055179715156555
          0.886955976486206 0.1743129938840866 0.42769500613212585 0.685716986656189 -0.38293400406837463 -0.6189939975738525
          -0.3632250130176544 0.1344590038061142 -0.9219480156898499 0.3165450096130371 -0.18097500503063202 -0.9311540126800537
          -0.9372879862785339 0.2968190014362335 -0.18272900581359863 -0.3210879862308502 -0.3331040143966675 0.8865349888801575
          0.921904981136322 0.029726000502705574 0.3862740099430084 0.07328200340270996 -0.2540600001811981 0.9644079804420471
          0.37102600932121277 -0.09013299643993378 0.9242380261421204 0.9787229895591736 0.1079069972038269 0.17451900243759155
          0.4678870141506195 0.542635977268219 -0.6975870132446289 0.8263940215110779 0.49777698516845703 -0.2632319927215576
          0.9549109935760498 0.2696880102157593 0.12415499985218048 0.0017089999746531248 0.5147669911384583 -0.8573279976844788
          -0.463468998670578 0.5339789986610413 -0.7071509957313538 -0.7152910232543945 -0.01962899975478649 0.6985509991645813
          -0.9363250136375427 0.33566999435424805 0.10305599868297577 -0.8201280236244202 0.457955002784729 -0.3430260121822357
          -0.7254329919815063 -0.11572500318288803 0.6784949898719788 0.7479270100593567 0.21131199598312378 0.6292480230331421
          0.040768999606370926 0.3098199963569641 0.9499210119247437 0.8692539930343628 -0.3281170129776001 -0.36977800726890564
          0.9162330031394958 -0.35388699173927307 -0.1878339946269989 0.7690860033035278 -0.6101430058479309 -0.19034799933433533
          0.5585910081863403 -0.7803789973258972 -0.28104299306869507 -0.8903779983520508 -0.2839690148830414 0.3557929992675781
          -0.9244570136070251 -0.18045200407505035 0.33588001132011414 -0.9380810260772705 -0.11697500199079514 0.3260689973831177
          -0.9254850149154663 -0.13700200617313385 0.35314100980758667 -0.11997000128030777 -0.5486379861831665 -0.8274080157279968