<?xml version="1.0"?>
<VTKFile type="PolyData" version="0.1" byte_order="LittleEndian" header_type="UInt32" compressor="vtkZLibDataCompressor">
  <PolyData>
    <Piece NumberOfPoints="2542" NumberOfVerts="0" NumberOfLines="0" NumberOfStrips="0" NumberOfPolys="5080">
      <PointData Normals="Normals">
        <DataArray type="Float32" Name="Normals" NumberOfComponents="3" format="ascii" RangeMin="0.9999992643071225" RangeMax="1.0000008900752673">
          0.230881005525589 0.5470899939537048 0.8046039938926697 0.1660030037164688 0.47569599747657776 0.8638030290603638
          -0.0013180000241845846 0.5316240191459656 0.8469799757003784 0.07597800344228745 0.647911012172699 0.7579180002212524
          0.21925300359725952 0.53678297996521 0.8147339820861816 0.08304800093173981 0.5975990295410156 0.7974820137023926
          0.31765100359916687 0.5940700173377991 0.7390390038490295 0.0643720030784607 0.6148710250854492 0.7859960198402405
          -0.16219499707221985 0.6297150254249573 0.7597050070762634 -0.21651700139045715 0.49697399139404297 0.8403199911117554
          -0.0028619999065995216 0.5448259711265564 0.8385440111160278 0.03487800061702728 0.631309986114502 0.7747460007667542
          -0.40189701318740845 0.4104880094528198 0.8185219764709473 -0.22221499681472778 0.4678489863872528 0.855417013168335
          -0.09736300259828568 0.44299501180648804 0.8912220001220703 0.19099999964237213 0.6444039940834045 0.7404469847679138
          -0.0362979993224144 0.6312379837036133 0.7747390270233154 0.08944399654865265 0.5798889994621277 0.8097710013389587
          -0.2489199936389923 0.6091690063476562 0.7529619932174683 -0.17340399324893951 0.6058059930801392 0.7764859795570374
          -0.13016800582408905 0.5706260204315186 0.8108279705047607 0.11321400105953217 0.6196680068969727 0.7766559720039368
          -0.11948700249195099 0.6605979800224304 0.7411699891090393 -0.37532299757003784 0.5785080194473267 0.7241969704627991
          0.17752499878406525 0.6554679870605469 0.7340620160102844 0.2266319990158081 0.5156030058860779 0.8263120055198669
          0.007292000111192465 0.7024509906768799 0.7116940021514893 -0.5006679892539978 0.48068898916244507 0.7199090123176575
          -0.5684959888458252 0.5224999785423279 0.6354579925537109 -0.6674889922142029 0.34894999861717224 0.6577929854393005
          -0.34415701031684875 0.5053899884223938 0.7912880182266235 -0.32826098799705505 0.33741798996925354 0.8822659850120544
          -0.505964994430542 0.3459790050983429 0.7901250123977661 -0.7082329988479614 0.2674480080604553 0.6533589959144592
          -0.09172999858856201 0.2665109932422638 0.9594569802284241 -0.32486000657081604 0.16204099357128143 0.9317770004272461
          -0.0976170003414154 0.6087520122528076 0.7873319983482361 0.13873299956321716 0.6279039978981018 0.7658259868621826
          -0.43798500299453735 0.5075650215148926 0.7419880032539368 0.027117999270558357 0.45424801111221313 0.8904619812965393
          -0.4655359983444214 0.4815930128097534 0.7425249814987183 -0.19963900744915009 0.5774890184402466 0.791612982749939
          -0.17302900552749634 0.6670060157775879 0.7246819734573364 -0.3757550120353699 0.651889979839325 0.6586710214614868
          -0.4942159950733185 0.5297470092773438 0.6892889738082886 0.014934999868273735 0.5580670237541199 0.829662024974823
          0.08793599903583527 0.614916980266571 0.7836729884147644 0.003326999954879284 0.7981449961662292 0.6024559736251831
          -0.14037500321865082 0.7885239720344543 0.5987690091133118 -0.2978169918060303 0.4982739984989166 0.8142650127410889
          -0.17173700034618378 0.48049500584602356 0.8600180149078369 -0.47316500544548035 0.6195989847183228 0.6262680292129517
          -0.6888459920883179 0.39887601137161255 0.6053000092506409 -0.69861900806427 0.488103985786438 0.5231500267982483
          -0.5524070262908936 0.6286839842796326 0.5473600029945374 -0.8500509858131409 0.22960899770259857 0.47401800751686096
          -0.8557239770889282 0.22746799886226654 0.4647519886493683 -0.8659679889678955 0.3064590096473694 0.3952000141143799
          -0.687703013420105 0.41264501214027405 0.5973179936408997 -0.5207489728927612 0.15231600403785706 0.8400120139122009
          -0.6048210263252258 0.2789349853992462 0.745913028717041 -0.7172480225563049 0.061089999973773956 0.6941350102424622
          -0.883508026599884 0.04939800128340721 0.46580401062965393 -0.1848450005054474 0.215147003531456 0.9589290022850037
          -0.33231499791145325 0.043125998228788376 0.9421820044517517 -0.6240270137786865 -0.014599000103771687 0.7812659740447998
          -0.5548629760742188 0.46912598609924316 0.6870570182800293 -0.34033799171447754 0.6505590081214905 0.678928017616272
          -0.13642199337482452 0.6251270174980164 0.7685080170631409 -0.08759699761867523 0.5436549782752991 0.834725022315979
          -0.19571200013160706 0.4099160134792328 0.8908789753913879 -0.4181329905986786 0.5343660116195679 0.7345870137214661
          -0.5110470056533813 0.5828080177307129 0.6317949891090393 -0.3718009889125824 0.7610039710998535 0.5316359996795654
          -0.14637699723243713 0.5029969811439514 0.8518030047416687 -0.30298900604248047 0.5878530144691467 0.7500839829444885
          0.09628400206565857 0.8354160189628601 0.5411180257797241 -0.04911400005221367 0.7572839856147766 0.6512359976768494
          -0.2549290060997009 0.6115220189094543 0.7490339875221252 -0.21430300176143646 0.8368909955024719 0.5036739706993103
          -0.12317299842834473 0.89969402551651 0.4187830090522766 -0.5174850225448608 0.5492519736289978 0.6561499834060669
          -0.6128420233726501 0.5341629981994629 0.5823180079460144 -0.805836021900177 0.40278100967407227 0.4340449869632721
          -0.7375040054321289 0.4721609950065613 0.48285800218582153 -0.5658699870109558 0.6259490251541138 0.536637008190155
          -0.6951500177383423 0.6093909740447998 0.38132598996162415 -0.8210849761962891 0.4499000012874603 0.351296991109848
          -0.9433370232582092 0.14951300621032715 0.2962439954280853 -0.9552130103111267 0.2861439883708954 0.07543399930000305
          -0.8754590153694153 0.388047993183136 0.28808099031448364 -0.6965230107307434 0.534928023815155 0.47823500633239746
          -0.9448480010032654 0.2476630061864853 0.2143000066280365 -0.9592790007591248 0.022818999364972115 0.2815369963645935
          -0.8688690066337585 0.017594000324606895 0.49472999572753906 -0.3588390052318573 0.1478929966688156 0.9216089844703674
          -0.4503920078277588 -0.002400000113993883 0.8928279876708984 -0.8153049945831299 -0.01618099957704544 0.5788050293922424
          -0.5559390187263489 -0.07578399777412415 0.8277609944343567 -0.5192949771881104 -0.09573899954557419 0.8492149710655212
          -0.6008049845695496 0.5960779786109924 0.5326570272445679 -0.30549898743629456 0.5608599781990051 0.7694849967956543
          -0.46289798617362976 0.28102999925613403 0.8406829833984375 -0.5545880198478699 0.735588014125824 0.3890269994735718
          -0.4269540011882782 0.8505340218544006 0.3070879876613617 -0.3857640027999878 0.5651630163192749 0.7292309999465942
          0.04150500148534775 0.9286959767341614 0.36851099133491516 0.10516300052404404 0.9810770153999329 0.1625709980726242
          -0.15170100331306458 0.8248000144958496 0.5446940064430237 -0.2479729950428009 0.7427170276641846 0.6219969987869263
          -0.4454059898853302 0.6320949792861938 0.634090006351471 -0.45604199171066284 0.7529199719429016 0.47448599338531494
          -0.21001900732517242 0.9423050284385681 0.2606779932975769 0.10551200062036514 0.9888269901275635 0.1052979975938797
          -0.46543601155281067 0.7448009848594666 0.47816500067710876 -0.6027690172195435 0.6881290078163147 0.4039149880409241
          -0.36398500204086304 0.7378270030021667 0.5684419870376587 -0.6847490072250366 0.638867974281311 0.35066598653793335
          -0.6880350112915039 0.624019980430603 0.37041398882865906 -0.6708019971847534 0.6436129808425903 0.368492990732193
          -0.6273059844970703 0.6195120215415955 0.471902996301651 -0.8287039995193481 0.5203160047531128 0.2062070071697235
          -0.7258219718933105 0.36576300859451294 0.5825799703598022 -0.882187008857727 0.3494870066642761 0.31560298800468445
          -0.9858329892158508 0.136013001203537 0.09815599769353867 -0.9845010042190552 0.10058999806642532 0.14366799592971802
          -0.9092609882354736 0.41278600692749023 0.053412001579999924 -0.9099299907684326 0.3607200086116791 -0.20471499860286713
          -0.9707099795341492 0.18074800074100494 -0.15827900171279907 -0.7813550233840942 0.5575100183486938 0.28047698736190796
          -0.9879909753799438 0.14677999913692474 0.0482649989426136 -0.9174339771270752 -0.011908999644219875 0.3977090120315552
          -0.9730349779129028 0.027563000097870827 0.22900499403476715 -0.9504849910736084 0.01406100019812584 0.31045299768447876
          -0.39242100715637207 0.017020000144839287 0.9196280241012573 -0.5015109777450562 0.011776000261306763 0.8650709986686707
          -0.5848150253295898 0.056380998343229294 0.8092049956321716 -0.5896279811859131 -0.049584999680519104 0.8061519861221313
          -0.8357890248298645 -0.06326200067996979 0.545395016670227 -0.9142720103263855 -0.015324000269174576 0.40481099486351013
          -0.605059027671814 -0.04384100064635277 0.7949720025062561 -0.5519819855690002 -0.05447600036859512 0.832073986530304
          -0.3137170076370239 -0.04871099814772606 0.9482660293579102 -0.679364025592804 0.48940199613571167 0.5467640161514282
          -0.5360810160636902 0.5259659886360168 0.6602849960327148 -0.6329460144042969 0.26597100496292114 0.72707599401474
          -0.6085410118103027 0.7594509720802307 0.23002499341964722 -0.5274270176887512 0.8261619806289673 0.198185995221138
          -0.6222289800643921 0.7773420214653015 0.09257400035858154 -0.7138620018959045 0.6936269998550415 0.09634900093078613
          -0.14291000366210938 0.9752950072288513 0.1684509962797165 0.046376001089811325 0.9988369941711426 0.013166000135242939
          0.21630799770355225 0.9680740237236023 -0.12666399776935577 -0.3523690104484558 0.8570219874382019 0.3759639859199524
          -0.18918299674987793 0.8703050017356873 0.45473000407218933 -0.2571159899234772 0.7460150122642517 0.6142910122871399
          -0.4942399859428406 0.6793180108070374 0.5424519777297974 -0.7467939853668213 0.6116939783096313 0.26101601123809814
          -0.6587730050086975 0.7498019933700562 -0.06176700070500374 -0.40491101145744324 0.912784993648529 0.05357100069522858
          -0.1742900013923645 0.9709950089454651 0.16368399560451508 -0.43857699632644653 0.8929259777069092 0.10165300220251083
          0.4255189895629883 0.8959439992904663 -0.12735000252723694 -0.00861900020390749 0.9999110102653503 -0.010160000063478947
          -0.30532601475715637 0.9513300061225891 0.04180099815130234 -0.5273360013961792 0.7587360143661499 0.3824079930782318
          -0.30992400646209717 0.8701390027999878 0.38315001130104065 -0.3990800082683563 0.8618789911270142 0.3128890097141266
          -0.6204689741134644 0.6985099911689758 0.35651400685310364 -0.4628880023956299 0.8238800168037415 0.32704100012779236
          -0.4802339971065521 0.8096619844436646 0.3373759984970093 -0.5944939851760864 0.6984620094299316 0.3984059989452362
          -0.5451890230178833 0.5978969931602478 0.5876129865646362 -0.6561089754104614 0.5818840265274048 0.4805540144443512
          -0.5711609721183777 0.6261410117149353 0.5307750105857849 -0.8273069858551025 0.4931339919567108 0.26903998851776123
          -0.4596030116081238 0.6329659819602966 0.6229919791221619 -0.4897119998931885 0.7482159733772278 0.4476119875907898
          -0.5217289924621582 0.546576976776123 0.6550210118293762 0.757686972618103 0.17815199494361877 0.627830982208252
          -0.7205320000648499 0.1718519926071167 0.6717889904975891 -0.17895600199699402 0.34879499673843384 0.9199550151824951
          -0.8800309896469116 0.2679949998855591 0.3920759856700897 -0.9868990182876587 0.1498589962720871 -0.059773001819849014
          -0.7896680235862732 0.6055920124053955 -0.09839899837970734 -0.8667110204696655 0.3450450003147125 -0.3602150082588196
          -0.775771975517273 0.5774679780006409 -0.2543799877166748 -0.9202499985694885 0.23359499871730804 -0.31396299600601196
          -0.9247339963912964 0.3079569935798645 -0.22367200255393982 -0.9826260209083557 0.16849100589752197 -0.07783100008964539
          -0.9996489882469177 0.025318000465631485 -0.007790999952703714 -0.9854620099067688 -0.024824000895023346 0.16807399690151215
          -0.965254008769989 -0.044185999780893326 0.25755101442337036 -0.45175901055336 0.0631290003657341 0.8899040222167969
          -0.5308089852333069 0.007133999839425087 0.847461998462677 -0.47637200355529785 0.05082099884748459 0.8777740001678467
          -0.30702799558639526 0.0308810006827116 0.9511989951133728 -0.4509580135345459 0.013051999732851982 0.8924499750137329
          -0.5001599788665771 -0.008116000331938267 0.8658949732780457 -0.6458250284194946 0.10081499814987183 0.7567999958992004
          -0.48116999864578247 -0.02469000034034252 0.8762800097465515 -0.6212760210037231 -0.02417599968612194 0.7832189798355103
          -0.9503899812698364 -0.12635500729084015 0.28424298763275146 -0.8796560168266296 -0.07210999727249146 0.47011199593544006
          -0.6352699995040894 0.7683519721031189 -0.07789299637079239 -0.08734100311994553 0.979649007320404 -0.18071900308132172
          0.12572500109672546 0.9262380003929138 -0.3553540110588074 0.017256999388337135 0.9672359824180603 0.2532919943332672
          -0.05436599999666214 0.9280509948730469 0.36846500635147095 -0.21598200500011444 0.9015780091285706 0.3748460114002228
          -0.17925900220870972 0.9541280269622803 0.23980499804019928 -0.2298790067434311 0.8521360158920288 0.4701269865036011
          -0.3354929983615875 0.8244150280952454 0.45583298802375793 -0.35691601037979126 0.6725320219993591 0.6483150124549866
          -0.48587799072265625 0.7234020233154297 0.49052301049232483 -0.6953949928283691 0.577351987361908 0.42789098620414734
          -0.8842520117759705 0.46666499972343445 -0.017965000122785568 -0.8864250183105469 0.4466170072555542 0.12159000337123871
          -0.866445004940033 0.47929900884628296 -0.13980600237846375 -0.48416998982429504 0.8123999834060669 -0.3249399960041046
          -0.2030470073223114 0.9423720240592957 -0.26590800285339355 0.5638269782066345 0.8115749955177307 -0.15311899781227112
          0.8016600012779236 0.4704900085926056 -0.3687550127506256 0.3228920102119446 0.9403970241546631 -0.10674600303173065
          -0.23473399877548218 0.9624279737472534 -0.13650000095367432 -0.4434179961681366 0.8927800059318542 -0.07952199876308441
          -0.08559200167655945 0.9730839729309082 0.2139669954776764 -0.1545030027627945 0.9782940149307251 0.13809600472450256
          -0.19807599484920502 0.9635339975357056 0.17990800738334656 -0.41082900762557983 0.8447160124778748 0.3430359959602356
          -0.2470649927854538 0.9237589836120605 0.29262199997901917 -0.30114901065826416 0.8206700086593628 0.4856019914150238
          -0.32607901096343994 0.532135009765625 0.7813479900360107 -0.5438010096549988 0.4623749852180481 0.7003499865531921
          -0.36433398723602295 0.46963098645210266 0.8041809797286987 -0.3940030038356781 0.4910689890384674 0.7769250273704529
          -0.3442409932613373 0.476282000541687 0.8091070055961609 -0.6197280287742615 0.4989759922027588 0.6057720184326172
          -0.6459569931030273 0.40476399660110474 0.647229015827179 -0.7921000123023987 0.39656001329421997 0.46402400732040405
          -0.22416900098323822 0.5539289712905884 0.8018180131912231 -0.26755601167678833 0.6573290228843689 0.7045090198516846
          0.9674760103225708 0.05974600091576576 0.2458070069551468 -0.7928410172462463 0.08336099982261658 0.6037009954452515
          -0.6082170009613037 0.08548399806022644 0.7891539931297302 -0.7740989923477173 0.12162599712610245 0.621271014213562
          -0.844111979007721 0.2970060110092163 -0.44638800621032715 -0.725845992565155 0.564221978187561 -0.39344900846481323
          -0.7393360137939453 0.4665130078792572 -0.4855400025844574 -0.782721996307373 0.335889995098114 -0.5239520072937012
          -0.9415079951286316 0.2679489850997925 -0.204366996884346 -0.8837379813194275 0.2857860028743744 -0.37058499455451965
          -0.773048996925354 0.4099000096321106 -0.48412400484085083 -0.9411060214042664 0.13405899703502655 -0.31040000915527344
          -0.965038001537323 0.0380220003426075 -0.25933700799942017 -0.9903010129928589 0.027782000601291656 -0.1361290067434311
          -0.9970009922981262 -0.05426499992609024 -0.05517899990081787 -0.9708970189094543 -0.052535999566316605 -0.23366500437259674
          -0.9603220224380493 -0.028223000466823578 -0.2774609923362732 -0.9915969967842102 -0.12454400211572647 0.03497999906539917
          -0.9800419807434082 -0.16481900215148926 0.1111380010843277 -0.9722800254821777 -0.11981700360774994 0.20078900456428528
          -0.3451089859008789 -0.00022499999613501132 0.9385629892349243 -0.5147669911384583 0.03077399916946888 0.8567780256271362
          -0.47553399205207825 -0.011749999597668648 0.8796190023422241 -0.6237499713897705 -0.007826000452041626 0.7815849781036377
          -0.5856829881668091 -0.11941699683666229 0.8016949892044067 -0.6259539723396301 -0.08075200021266937 0.7756680250167847
          -0.4021410048007965 0.025829000398516655 0.9152129888534546 -0.609906017780304 0.022086000069975853 0.792165994644165
          -0.5619450211524963 -0.025340000167489052 0.8267859816551208 -0.351283997297287 -0.005288000218570232 0.9362540245056152
          -0.6686229705810547 -0.025960000231862068 0.7431480288505554 -0.7651000022888184 -0.027893999591469765 0.6433060169219971
          -0.9660810232162476 -0.14032499492168427 0.2167849987745285 -0.9680269956588745 -0.23660999536514282 0.08330599963665009
          -0.9651399850845337 -0.18585699796676636 0.18428699672222137 -0.9507550001144409 -0.0942860022187233 0.2952539920806885
          -0.8396430015563965 -0.036657001823186874 0.5418999791145325 -0.6170309782028198 0.738044023513794 -0.273063987493515
          0.5184379816055298 0.5334219932556152 -0.6683430075645447 0.26101601123809814 0.5818179845809937 -0.7702980041503906
          0.009793000295758247 0.9390919804573059 0.3435260057449341 0.1323550045490265 0.9590389728546143 0.250450998544693
          0.28389599919319153 0.9584280252456665 0.028622999787330627 0.0476129986345768 0.9941189885139465 0.0972680002450943
          -0.216170996427536 0.9579290151596069 0.1887889951467514 -0.4143669903278351 0.8970770239830017 0.15347300469875336
          -0.48531100153923035 0.8155909776687622 0.3150930106639862 -0.568464994430542 0.8065779805183411 0.16211199760437012
          -0.5260900259017944 0.7989739775657654 0.2913230061531067 -0.6845160126686096 0.702892005443573 0.19334100186824799
          -0.8596060276031494 0.48316100239753723 0.16623100638389587 -0.9511849880218506 0.2886140048503876 0.10931099951267242
          -0.6435359716415405 0.7651690244674683 -0.01941400021314621 -0.9296519756317139 0.2831070125102997 0.2357890009880066
          -0.5912160277366638 0.631026029586792 -0.5022640228271484 0.6304150223731995 0.4745270013809204 -0.6143289804458618
          0.7672110199928284 0.6104429960250854 -0.1968419998884201 0.17765499651432037 0.9571629762649536 -0.228643998503685
          0.4419209957122803 0.8565289974212646 -0.2665790021419525 0.5942919850349426 0.6590319871902466 -0.460970014333725
          0.986083984375 0.14378699660301208 -0.08344600349664688 0.373089998960495 0.21409299969673157 -0.9027559757232666
          0.9599729776382446 0.27613699436187744 0.046911999583244324 -0.4293229877948761 0.8233000040054321 -0.3712950050830841
          0.11070699989795685 0.9901189804077148 -0.0860700011253357 -0.07977700233459473 0.9902240037918091 0.11441700160503387
          0.015219000168144703 0.9995549917221069 -0.02565000019967556 -0.06502100080251694 0.9951260089874268 0.07413499802350998
          0.1583230048418045 0.9829490184783936 0.09351199865341187 0.04831299930810928 0.9912179708480835 0.12309599667787552
          -0.2887890040874481 0.872651994228363 0.3937999904155731 -0.010224999859929085 0.8700780272483826 0.492807000875473
          0.010115000419318676 0.9487169981002808 0.3159649968147278 0.08556400239467621 0.7610189914703369 0.6430619955062866
          -0.06287699937820435 0.7281090021133423 0.6825709939002991 -0.03842499852180481 0.4634549915790558 0.8852869868278503
          -0.09021999686956406 0.3971250057220459 0.9133189916610718 -0.04307800158858299 0.4358290135860443 0.8989980220794678
          -0.2726840078830719 0.3533110022544861 0.8948829770088196 -0.4169769883155823 0.19655700027942657 0.8874099850654602
          -0.5895929932594299 0.34218600392341614 0.7316340208053589 -0.20436899363994598 0.2677080035209656 0.9415760040283203
          -0.3005000054836273 0.24207699298858643 0.9225500226020813 -0.2975490093231201 0.3671700060367584 0.8812779784202576
          -0.1734900027513504 0.21619699895381927 0.960811972618103 -0.6327400207519531 0.3724589943885803 0.6789060235023499
          -0.5971140265464783 0.15505999326705933 0.7870270013809204 0.09137199819087982 0.561115026473999 0.8226789832115173
          0.20197300612926483 0.3751339912414551 0.904699981212616 -0.6031039953231812 -0.0702890008687973 0.7945590019226074
          -0.6400309801101685 0.507436990737915 -0.5769469738006592 -0.6073399782180786 0.596921980381012 -0.5242339968681335
          -0.71561598777771 0.3007740080356598 -0.6304200291633606 -0.6434980034828186 0.5708370208740234 -0.5099560022354126
          -0.6681240200996399 0.3155609965324402 -0.6738179922103882 -0.648813009262085 0.3692609965801239 -0.6653479933738708
          -0.8435879945755005 0.1680160015821457 -0.5100299715995789 -0.7392609715461731 0.3311060070991516 -0.5863969922065735
          -0.8729329705238342 0.010499999858438969 -0.48772698640823364 -0.9278550148010254 -0.18439799547195435 -0.3241629898548126
          -0.8980600237846375 -0.14200499653816223 -0.4163210093975067 -0.9400479793548584 -0.2826789915561676 -0.1907929927110672
          -0.5213959813117981 -0.08724799752235413 0.848842978477478 -0.3965649902820587 -0.15402600169181824 0.9049929976463318
          -0.4660870134830475 -0.03956799954175949 0.883853018283844 -0.33588001132011414 -0.10916399955749512 0.935558021068573
          -0.5192390084266663 -0.04196299985051155 0.8535979986190796 -0.3604060113430023 -0.24652299284934998 0.8996300101280212
          -0.3388949930667877 -0.22900499403476715 0.9125279784202576 -0.3162339925765991 -0.1886579990386963 0.9297329783439636
          -0.4312340021133423 -0.15827499330043793 0.8882489800453186 -0.4729759991168976 -0.06630399823188782 0.8785769939422607
          -0.4017049968242645 -0.19481199979782104 0.8948079943656921 -0.26663100719451904 -0.07720199972391129 0.9607020020484924
          -0.241347998380661 -0.1438020020723343 0.959725022315979 -0.7267850041389465 -0.01617100089788437 0.6866739988327026
          -0.6137599945068359 -0.015821000561118126 0.7893339991569519 -0.5843279957771301 -0.018261000514030457 0.8113120198249817
          -0.9810789823532104 -0.17690899968147278 0.07865899801254272 -0.979112982749939 -0.2030079960823059 0.011176999658346176
          -0.9926339983940125 -0.10644599795341492 0.057861000299453735 -0.9209480285644531 -0.34941598773002625 -0.17252199351787567
          -0.9653589725494385 -0.2522270083427429 0.06680600345134735 -0.9719259738922119 -0.07919099926948547 0.221561998128891
          -0.6604629755020142 0.007292000111192465 0.7508230209350586 -0.9250410199165344 -0.018611999228596687 0.3794119954109192
          -0.5965080261230469 0.04300599917769432 0.8014540076255798 -0.5836480259895325 0.027142999693751335 0.8115530014038086
          -0.7428209781646729 0.011978000402450562 0.6693829894065857 0.9505879878997803 0.07168500125408173 -0.30206599831581116
          0.9428229928016663 0.009920000098645687 -0.33314698934555054 -0.13541899621486664 0.9879689812660217 0.07468999922275543
          0.23780499398708344 0.9651200175285339 0.10951299965381622 -0.015172000043094158 0.9996860027313232 -0.019936999306082726
          0.27931898832321167 0.9485260248184204 -0.14926299452781677 0.354312002658844 0.9191550016403198 -0.17209500074386597
          0.4360870122909546 0.8677539825439453 -0.23839299380779266 0.23329900205135345 0.9690030217170715 -0.08126699924468994
          0.383652001619339 0.915336012840271 -0.122359998524189 0.3902739882469177 0.9145020246505737 -0.10664000362157822
          0.22179800271987915 0.9657490253448486 -0.13466599583625793 -0.5337679982185364 0.8172439932823181 -0.21726499497890472
          -0.7254639863967896 0.6686409711837769 -0.16315700113773346 -0.7653570175170898 0.6430060267448425 0.02779100090265274
          -0.7657909989356995 0.6428689956665039 0.01683099940419197 -0.8699889779090881 0.492900013923645 -0.012986999936401844
          -0.9054089784622192 0.42428499460220337 0.014739999547600746 -0.891215980052948 0.36476999521255493 0.2695870101451874
          -0.6980839967727661 0.6226649880409241 0.35350701212882996 -0.743120014667511 0.5533419847488403 -0.37627801299095154
          -0.7248439788818359 0.6420689821243286 0.2496969997882843 -0.8144590258598328 0.435698002576828 0.3831759989261627
          -0.7023630142211914 0.4205630123615265 -0.5742949843406677 0.1605989933013916 0.845874011516571 -0.5086309909820557
          0.5555359721183777 0.7787709832191467 -0.2913680076599121 0.8633210062980652 0.4395819902420044 0.2478809952735901
          0.7788500189781189 0.6023110151290894 0.17497000098228455 -0.04054500162601471 0.8876590132713318 -0.45871299505233765
          -0.591825008392334 0.7824379801750183 -0.19373799860477448 0.7171890139579773 0.5128700137138367 -0.4718089997768402
          0.22152499854564667 0.8967750072479248 0.38304200768470764 -0.36213400959968567 0.7136350274085999 -0.5996530055999756
          0.1062450036406517 0.977869987487793 -0.18022899329662323 0.27776700258255005 0.881974995136261 -0.380744993686676
          0.02835099957883358 0.9985340237617493 0.046105001121759415 0.23321199417114258 0.9719420075416565 -0.03066300041973591
          0.8297759890556335 0.5575680136680603 0.024286000058054924 0.8369439840316772 0.5470629930496216 0.01571900025010109
          0.09370400011539459 0.9443569779396057 0.31529200077056885 -0.003737000050023198 0.9995660185813904 0.029222000390291214
          0.09593699872493744 0.9904800057411194 0.09871400147676468 0.14653800427913666 0.9453110098838806 0.2914009988307953
          0.7067319750785828 0.7074040174484253 0.010425999760627747 0.23019999265670776 0.8269569873809814 0.5129820108413696
          0.30326399207115173 0.7157620191574097 0.6290590167045593 0.2670550048351288 0.819428026676178 0.5071690082550049
          0.2899549901485443 0.5530660152435303 0.7810530066490173 0.3463670015335083 0.6144760251045227 0.7088369727134705
          0.1831669956445694 0.35443100333213806 0.91696697473526 0.2168560028076172 0.32237499952316284 0.9214379787445068
          0.17824199795722961 0.15058399736881256 0.9723960161209106 -0.20677199959754944 0.09939199686050415 0.9733279943466187
          -0.344419002532959 0.00916100014001131 0.9387710094451904 -0.16439500451087952 -0.03082600049674511 0.9859129786491394
          -0.1443749964237213 0.004953000228852034 0.9895110130310059 0.03660000115633011 -0.024397000670433044 0.9990320205688477
          -0.43224599957466125 -0.10644499957561493 0.895451009273529 0.28115299344062805 0.4168739914894104 0.8643890023231506
          0.38699498772621155 0.3741529881954193 0.8427600264549255 0.4848630130290985 0.1349859982728958 0.8641110062599182
          0.42540401220321655 0.20084500312805176 0.8824359774589539 0.4393869936466217 0.23508700728416443 0.8669909834861755
          -0.549934983253479 0.46422499418258667 -0.6943100094795227 -0.5336610078811646 0.5703219771385193 -0.6244509816169739
          -0.4416149854660034 0.6188870072364807 -0.6495810151100159 -0.5984960198402405 0.4151979982852936 -0.6851379871368408
          -0.6249409914016724 0.46952399611473083 -0.6236960291862488 -0.6464830040931702 0.3074919879436493 -0.6982179880142212
          -0.6536980271339417 0.3140060007572174 -0.6885340213775635 -0.6047980189323425 0.3470500111579895 -0.7167819738388062
          -0.6850889921188354 0.31713101267814636 -0.6558049917221069 -0.5515390038490295 0.3421820104122162 -0.7607340216636658
          -0.7616909742355347 0.1718759983778 -0.6247280240058899 -0.8208960294723511 -0.04357000067830086 -0.5694140195846558
          -0.7240970134735107 0.12056700140237808 -0.6790779829025269 -0.8313120007514954 -0.200081005692482 -0.518543004989624
          -0.7915890216827393 -0.314520001411438 -0.5238919854164124 -0.8225330114364624 -0.35434699058532715 -0.44483399391174316
          -0.811424970626831 -0.31817400455474854 -0.4902609884738922 -0.3438900113105774 -0.20986400544643402 0.91525799036026
          -0.42750000953674316 -0.1328119933605194 0.8942059874534607 -0.24888500571250916 -0.1572279930114746 0.9556859731674194
          -0.21709300577640533 -0.2539989948272705 0.9425259828567505 -0.245060995221138 -0.2502560019493103 0.9366520047187805
          -0.2822209894657135 -0.021971000358462334 0.9590979814529419 -0.2014629989862442 -0.3094240128993988 0.9293379783630371
          -0.0377499982714653 -0.23675499856472015 0.9708359837532043 -0.1598840057849884 -0.1475909948348999 0.9760400056838989