<?xml version="1.0"?>
<VTKFile type="PolyData" version="0.1" byte_order="LittleEndian" header_type="UInt32" compressor="vtkZLibDataCompressor">
  <PolyData>
    <Piece NumberOfPoints="806" NumberOfVerts="0" NumberOfLines="0" NumberOfStrips="0" NumberOfPolys="1608">
      <PointData Normals="Normals">
        <DataArray type="Float32" Name="Normals" NumberOfComponents="3" format="ascii" RangeMin="0.9999992555140733" RangeMax="1.0000007195434581">
          -0.920403003692627 -0.1484059989452362 -0.3617100119590759 -0.883575975894928 -0.13512100279331207 -0.4483700096607208
          -0.9505590200424194 -0.09500999748706818 -0.2956539988517761 -0.9953259825706482 -0.09332100301980972 -0.0248429998755455
          0.797590970993042 -0.16062599420547485 -0.5814189910888672 0.22134000062942505 -0.3913460075855255 -0.8932279944419861
          -0.9618610143661499 -0.11931700259447098 -0.24614499509334564 -0.7722510099411011 -0.17387700080871582 -0.6110600233078003
          -0.9986799955368042 -0.03685000166296959 0.03577300161123276 -0.9975709915161133 -0.058715999126434326 0.03749199956655502
          -0.9937009811401367 -0.027046000584959984 -0.10875099897384644 -0.8385369777679443 -0.12923100590705872 -0.5292969942092896
          -0.8907719850540161 -0.029287999495863914 -0.4535059928894043 -0.9925079941749573 -0.07469499856233597 0.0966849997639656
          -0.8996829986572266 -0.14964400231838226 -0.4100930094718933 -0.9858980178833008 -0.12515400350093842 0.11109200119972229
          -0.9902070164680481 -0.1179409995675087 -0.07469700276851654 -0.9976099729537964 -0.05528999865055084 0.0414390005171299
          0.7933089733123779 -0.21391600370407104 -0.5699999928474426 -0.7259740233421326 -0.1712770015001297 -0.6660529971122742
          -0.7032899856567383 -0.11637099832296371 -0.7013139724731445 -0.7115569710731506 -0.11558199673891068 -0.6930570006370544
          -0.8237230181694031 -0.1657550036907196 -0.5422229766845703 -0.9721469879150391 -0.07116799801588058 0.22330600023269653
          -0.9767060279846191 -0.05741799995303154 0.20675699412822723 -0.9991610050201416 -0.03674300014972687 -0.01809000037610531
          -0.9506369829177856 -0.01140500046312809 -0.31009501218795776 -0.8008319735527039 -0.04445800185203552 -0.5972359776496887
          -0.7805150151252747 -0.000818000000435859 -0.6251360177993774 -0.9898419976234436 -0.10564099997282028 0.09514100104570389
          -0.9920259714126587 -0.07762499898672104 0.09929399937391281 -0.9742649793624878 -0.10460899770259857 0.1996610015630722
          -0.5042219758033752 -0.12589499354362488 -0.8543480038642883 -0.7222909927368164 -0.10740900039672852 -0.683197021484375
          -0.9268860220909119 -0.10228099673986435 -0.36114001274108887 -0.8585969805717468 -0.4082520008087158 0.3100680112838745
          0.9986389875411987 -0.049883998930454254 0.01522700022906065 -0.9951689839363098 0.07641299813985825 -0.061643000692129135
          0.9791669845581055 -0.17705599963665009 0.09941300004720688 -0.9999439716339111 -0.008736999705433846 0.005973000079393387
          -0.9728310108184814 0.22032999992370605 -0.07109999656677246 -0.48778998851776123 -0.15862500667572021 -0.8584280014038086
          -0.6552420258522034 -0.15780100226402283 -0.7387539744377136 -0.6673300266265869 -0.041839998215436935 -0.743586003780365
          -0.03138599917292595 -0.11918000131845474 -0.9923760294914246 -0.40501299500465393 -0.07877299934625626 -0.9109110236167908
          -0.9184939861297607 -0.0987439975142479 0.3829070031642914 -0.9258340001106262 -0.12864600121974945 0.3553619980812073
          -0.9426109790802002 -0.05902500078082085 0.32863500714302063 -0.8535590171813965 -0.11106300354003906 0.509020984172821
          -0.972495973110199 -0.06752199679613113 0.22291700541973114 -0.9234089851379395 -0.08271399885416031 0.3747979998588562
          -0.9983890056610107 -0.05508600175380707 0.01360899955034256 -0.9124320149421692 -0.08183799684047699 0.4009610116481781
          -0.9514999985694885 -0.10162100195884705 -0.29038000106811523 -0.7774040102958679 -0.07148700207471848 -0.624925971031189
          -0.9972530007362366 -0.055208999663591385 -0.04938400164246559 -0.531915009021759 -0.08556400239467621 -0.842464029788971
          -0.9607179760932922 -0.13917000591754913 0.24010899662971497 -0.9766420125961304 -0.10124699771404266 0.18952199816703796
          -0.99406898021698 -0.04384800046682358 0.09952399879693985 -0.9735649824142456 0.041868001222610474 0.22454099357128143
          -0.9195430278778076 -0.15800899267196655 0.359824001789093 -0.3929220139980316 -0.06383699923753738 -0.9173539876937866
          -0.20665299892425537 -0.10441400110721588 -0.9728270173072815 0.9435020089149475 -0.05338500067591667 -0.3270370066165924
          0.7494509816169739 -0.13647699356079102 -0.6478409767150879 -0.5858650207519531 0.014026000164449215 -0.8102869987487793
          -0.8904669880867004 0.08683399856090546 -0.44668498635292053 -0.9941059947013855 -0.03979700058698654 0.10084299743175507
          -0.9464150071144104 0.29552799463272095 -0.13023899495601654 -0.9874709844589233 0.13808999955654144 0.07636900246143341
          -0.8312129974365234 0.4454540014266968 -0.3326509892940521 -0.8129609823226929 0.5417609810829163 -0.2135169953107834
          -0.9195910096168518 0.38919898867607117 -0.05363500118255615 -0.36787599325180054 -0.10565599799156189 -0.9238529801368713
          -0.3869189918041229 -0.10853499919176102 -0.9157040119171143 -0.15781399607658386 -0.0485679991543293 -0.986274003982544
          -0.12212000042200089 -0.09790100157260895 -0.9876750111579895 -0.11176200211048126 -0.07180999964475632 -0.9911370277404785
          -0.8633469939231873 -0.14464899897575378 0.4834350049495697 -0.7033420205116272 -0.1643649935722351 0.6915879845619202
          -0.7866979837417603 -0.16434000432491302 0.5950620174407959 -0.6704429984092712 -0.10966099798679352 0.7338119745254517
          -0.8322479724884033 -0.07860399782657623 0.548803985118866 -0.8677380084991455 -0.0948920026421547 0.48787999153137207
          -0.9823750257492065 -0.044408999383449554 0.1815679967403412 -0.9933949708938599 -0.06327299773693085 0.09571799635887146
          -0.9193080067634583 -0.07172899693250656 0.38694798946380615 -0.8234459757804871 -0.08266499638557434 -0.5613399744033813
          -0.9776660203933716 -0.0815109983086586 -0.1937119960784912 -0.5592489838600159 -0.06565400213003159 -0.8263959884643555
          -0.35169899463653564 -0.1288519948720932 -0.9272029995918274 -0.10323899984359741 -0.14590300619602203 -0.9838969707489014
          -0.8848119974136353 -0.183010995388031 0.42850300669670105 -0.9324150085449219 -0.15224100649356842 0.32775598764419556
          -0.8675969839096069 -0.11068099737167358 0.4847950041294098 -0.843513011932373 0.12323500216007233 0.5227810144424438
          -0.8990769982337952 0.4156070053577423 0.1375879943370819 -0.9455159902572632 0.2217559963464737 0.23837600648403168
          -0.154790997505188 -0.08813399821519852 -0.9840080142021179 -0.15686999261379242 -0.06029000133275986 -0.9857770204544067
          -0.3250199854373932 0.004422000143676996 -0.945697009563446 -0.15905100107192993 -0.07720399647951126 -0.9842470288276672
          -0.369581013917923 0.14306800067424774 -0.9181180000305176 -0.641700029373169 0.23268499970436096 -0.7308070063591003
          -0.8386489748954773 0.24671700596809387 -0.48559099435806274 -0.8971670269966125 0.41446998715400696 0.15266300737857819
          -0.7012150287628174 0.6384770274162292 -0.3172459900379181 -0.6108350157737732 0.4165560007095337 -0.673321008682251
          -0.7643830180168152 0.6403729915618896 -0.07511100172996521 -0.5312250256538391 0.778668999671936 -0.3338780105113983
          -0.5608339905738831 0.8198649883270264 -0.11526700109243393 -0.7033020257949829 0.6996520161628723 0.12591099739074707
          -0.6114810109138489 0.7796099781990051 0.1352739930152893 0.15571600198745728 -0.11428099870681763 -0.9811689853668213
          -0.0781330019235611 -0.01635799929499626 -0.9968090057373047 -0.012455999851226807 0.010142000392079353 -0.999871015548706
          0.32864099740982056 -0.11219800263643265 -0.9377670288085938 0.46244099736213684 -0.18005600571632385 -0.8681750297546387
          0.32204699516296387 -0.12048199772834778 -0.9390259981155396 0.11923100054264069 -0.06278099864721298 -0.990880012512207
          0.1690869927406311 -0.07380499690771103 -0.982833981513977 -0.6545959711074829 -0.23261100053787231 0.7193019986152649
          -0.6136549711227417 -0.15728899836540222 0.7737489938735962 -0.526078999042511 -0.19291800260543823 0.8282650113105774
          -0.7894409894943237 -0.20628200471401215 0.5781270265579224 -0.7906140089035034 -0.08680099993944168 0.6061319708824158
          -0.6724749803543091 -0.10936500132083893 0.7319949865341187 -0.5233190059661865 -0.09998399764299393 0.8462510108947754
          -0.4004710018634796 -0.13679000735282898 0.9060419797897339 -0.49818700551986694 -0.16976900398731232 0.8502870202064514
          -0.8253859877586365 -0.15331099927425385 0.5433539748191833 -0.743939995765686 -0.10801199823617935 0.6594589948654175
          -0.9779930114746094 -0.02858000062406063 0.20667299628257751 -0.9995200037956238 -0.01606700010597706 -0.026497000828385353
          -0.9225590229034424 -0.05261800065636635 0.3822529911994934 -0.5574060082435608 0.1228180006146431 -0.8211060166358948
          -0.9177950024604797 0.02435999922454357 -0.39630699157714844 -0.21756400167942047 -0.012949000112712383 -0.9759600162506104
          0.05715499818325043 -0.13480700552463531 -0.98922199010849 0.34213098883628845 -0.1650480031967163 -0.925042986869812
          -0.8204050064086914 -0.2256699949502945 0.5253660082817078 -0.826187014579773 -0.12041699886322021 0.5503780245780945
          -0.72850102186203 0.15739800035953522 0.666716992855072 -0.7576559782028198 0.39698201417922974 0.5180379748344421
          -0.8536270260810852 0.4019539952278137 0.33129099011421204 -0.709559977054596 0.6791719794273376 0.18774999678134918
          -0.47024399042129517 0.8792200088500977 0.07643699645996094 -0.7483500242233276 0.5741469860076904 0.3321569859981537
          0.24025900661945343 -0.053210001438856125 -0.9692490100860596 0.15598300099372864 -0.09768900275230408 -0.9829170107841492
          0.12309899926185608 -0.1115730032324791 -0.9861019849777222 -0.06485699862241745 0.05864400044083595 -0.9961699843406677
          0.06040000170469284 -0.05141400173306465 -0.996849000453949 -0.13387900590896606 0.3008359968662262 -0.9442319869995117
          -0.3292140066623688 0.3830699920654297 -0.8630620241165161 -0.6420660018920898 0.623403012752533 -0.4462290108203888
          -0.48373299837112427 0.5790979862213135 -0.6562380194664001 -0.44975200295448303 0.8888580203056335 0.08749400079250336
          -0.26812800765037537 0.9633820056915283 0.001370999962091446 -0.2282630056142807 0.7117959856987 -0.664260983467102
          -0.2380940020084381 0.9594200253486633 0.151078000664711 -0.20984899997711182 0.96042799949646 0.1831440031528473
          0.5833899974822998 -0.17102399468421936 -0.7939810156822205 0.5659880042076111 -0.15529599785804749 -0.8096550107002258
          0.6319059729576111 -0.12605899572372437 -0.7647250294685364 0.6560689806938171 -0.1463710069656372 -0.740369975566864
          0.6561800241470337 -0.13717399537563324 -0.7420309782028198 0.4445149898529053 -0.061381999403238297 -0.8936660289764404
          -0.5051689743995667 -0.274852991104126 0.8180840015411377 -0.6188340187072754 -0.24094200134277344 0.7476570010185242
          -0.7543650269508362 -0.2439190000295639 0.6094560027122498 -0.4646649956703186 -0.24041099846363068 0.8522260189056396
          -0.4519970118999481 -0.2773270010948181 0.8478140234947205 -0.30560898780822754 -0.2179650068283081 0.9268739819526672
          -0.32551100850105286 -0.1549450010061264 0.9327560067176819 -0.5546839833259583 -0.13316799700260162 0.8213350176811218
          -0.4742499887943268 -0.13087700307369232 0.8706079721450806 -0.4480369985103607 -0.1236800029873848 0.8854190111160278
          -0.3260979950428009 -0.11838900297880173 0.9378929734230042 -0.32532799243927 -0.12529799342155457 0.937263011932373
          -0.14954900741577148 -0.1646990031003952 0.9749410152435303 -0.7182250022888184 -0.17659200727939606 0.6730290055274963
          -0.6324210166931152 -0.1899539977312088 0.7509739995002747 -0.6448879837989807 -0.13334199786186218 0.7525550127029419
          -0.5546810030937195 -0.13161100447177887 0.8215879797935486 -0.9921810030937195 0.11896199733018875 -0.037737999111413956
          -0.8966619968414307 0.11149299889802933 0.42844799160957336 -0.4439080059528351 0.2873440086841583 -0.8487510085105896
          -0.806236982345581 0.17441299557685852 -0.5652980208396912 -0.051461998373270035 0.2537960112094879 -0.9658880233764648
          0.04145999997854233 0.10134200006723404 -0.9939870238304138 0.40181100368499756 -0.14227600395679474 -0.9046019911766052
          0.34572499990463257 0.041551001369953156 -0.9374160170555115 0.35448500514030457 -0.21386399865150452 -0.9102759957313538
          0.5677030086517334 -0.15609599649906158 -0.8082990050315857 -0.7848629951477051 -0.25334298610687256 0.5655149817466736
          -0.6827859878540039 -0.24779799580574036 0.687313973903656 -0.6990330219268799 -0.20168499648571014 0.686057984828949
          -0.6946420073509216 -0.09552299976348877 0.7129849791526794 -0.5382620096206665 0.04153599962592125 0.8417530059814453
          -0.5138649940490723 0.2736150026321411 0.8130670189857483 -0.6161580085754395 0.51317298412323 0.5974979996681213
          -0.5855969786643982 0.6676329970359802 0.4597190022468567 -0.3615570068359375 0.9255030155181885 0.11278600245714188
          -0.5861489772796631 0.740227997303009 0.329382985830307 0.06851900368928909 0.9955909848213196 0.0640529990196228
          0.08521000295877457 0.9773520231246948 -0.19370900094509125 0.43096500635147095 -0.09923800081014633 -0.8968949913978577
          0.5801389813423157 -0.07904600352048874 -0.8106729984283447 0.3053489923477173 -0.06931699812412262 -0.9497140049934387
          0.23458999395370483 -0.0028019999153912067 -0.9720900058746338 0.23263899981975555 0.2047480046749115 -0.9507669806480408
          0.02555299922823906 0.4727559983730316 -0.880823016166687 -0.026882000267505646 0.9701060056686401 0.24118700623512268
          -0.07775899767875671 0.9427580237388611 0.32428601384162903 -0.21641799807548523 0.9083960056304932 0.3577440083026886
          -0.14257200062274933 0.9291419982910156 -0.34112799167633057 -0.1964769959449768 0.9803270101547241 0.018843000754714012
          -0.2815699875354767 0.9114699959754944 0.29989999532699585 -0.16333800554275513 0.8319429755210876 -0.5302749872207642
          0.048836998641490936 0.684319019317627 -0.7275450229644775 0.6994529962539673 -0.11348100006580353 -0.705610990524292
          0.5756400227546692 -0.07015000283718109 -0.8146889805793762 0.6431649923324585 -0.13918200135231018 -0.7529730200767517
          0.5874419808387756 -0.10586199909448624 -0.8023120164871216 0.6290339827537537 -0.14581899344921112 -0.7635790109634399
          0.6561840176582336 -0.128043994307518 -0.7436580061912537 -0.47683900594711304 -0.16408300399780273 0.86353999376297
          -0.34231698513031006 -0.2439499944448471 0.9073629975318909 -0.29206201434135437 -0.2703149914741516 0.9174039959907532
          -0.16211600601673126 -0.23700299859046936 0.9578869938850403 -0.3495829999446869 -0.1402360051870346 0.9263499975204468
          -0.30003100633621216 -0.12901900708675385 0.9451640248298645 -0.18098799884319305 -0.13711300492286682 0.9738810062408447
          -0.00048600000445730984 -0.18876299262046814 0.9820230007171631 0.0914440006017685 -0.24597400426864624 0.9649530053138733
          -0.05434500053524971 -0.2213740050792694 0.9736739993095398 -0.7623149752616882 -0.10861799865961075 0.638027012348175
          0.9615839719772339 -0.0828540027141571 0.261709988117218 0.3833020031452179 -0.1840829998254776 0.9050930142402649
          0.7469050288200378 -0.20938700437545776 0.631102979183197 -0.6754950284957886 -0.21591700613498688 0.7050430178642273
          -0.6012179851531982 -0.1627040058374405 0.7823449969291687 -0.42935898900032043 -0.12734100222587585 0.8941119909286499
          -0.7861930131912231 0.26283198595046997 -0.5593029856681824 -0.9452000260353088 0.2697890102863312 -0.18387599289417267
          -0.9669340252876282 0.2264849990606308 0.1172339990735054 -0.9623169898986816 0.22902199625968933 0.14661100506782532
          -0.8054069876670837 0.1417279988527298 0.5755289793014526 -0.755312979221344 0.02219099923968315 0.6549890041351318
          -0.21641899645328522 0.34769201278686523 -0.9122899770736694 -0.06765999644994736 0.357573002576828 -0.931430995464325
          0.28369200229644775 0.26728299260139465 -0.9209120273590088 0.28213900327682495 0.1683579981327057 -0.9444850087165833
          0.5154709815979004 -0.006626000162214041 -0.8568810224533081 0.5030859708786011 0.05663599818944931 -0.8623790144920349
          0.4320099949836731 0.10524799674749374 -0.8957070112228394 -0.40609198808670044 0.15365399420261383 0.9008219838142395
          -0.2750470042228699 0.06758400052785873 0.9590520262718201 -0.4968560039997101 0.5315369963645935 0.6860039830207825
          -0.29469600319862366 0.2826319932937622 0.9128379821777344 -0.3084990084171295 0.4990450143814087 0.8098040223121643
          -0.3966839909553528 0.6975799798965454 0.5966780185699463 -0.4761990010738373 0.7007330060005188 0.5312319993972778
          -0.39635199308395386 0.8397579789161682 0.3710950016975403 0.16051000356674194 0.987034022808075 -0.0005840000230818987
          0.09932400286197662 0.9940959811210632 0.04366999864578247 -0.014433000236749649 0.9831809997558594 0.1820639967918396
          -0.06655599921941757 0.9292590022087097 0.3633840084075928 0.3074600100517273 0.9129940271377563 -0.2681620121002197
          0.6157180070877075 -0.08607500046491623 -0.7832509875297546 0.5676019787788391 -0.0772780030965805 -0.8196679949760437
          0.5162960290908813 -0.08025500178337097 -0.8526409864425659 0.4461430013179779 -0.05795200169086456 -0.8930829763412476
          0.4576820135116577 -0.005299000069499016 -0.8891000151634216 0.4955660104751587 0.22742000222206116 -0.8382689952850342
          0.3340359926223755 0.40458500385284424 -0.851311981678009 -0.2998250126838684 0.8642759919166565 0.40389499068260193
          0.024119000881910324 0.8920180201530457 -0.4513559937477112 -0.19216600060462952 0.9737600088119507 0.1219170019030571
          0.30289700627326965 0.6316109895706177 -0.7136669754981995 0.5415239930152893 -0.007703000213950872 -0.8406500220298767
          0.5442129969596863 -0.09185799956321716 -0.8339030146598816 0.6677929759025574 -0.032861001789569855 -0.7436209917068481
          0.7225260138511658 -0.0833669975399971 -0.6862990260124207 0.6308429837226868 -0.19896499812602997 -0.749966025352478
          0.6018009781837463 -0.11312499642372131 -0.7905930280685425 0.5456100106239319 -0.16028499603271484 -0.8225690126419067
          0.5648840069770813 -0.20527100563049316 -0.7992299795150757 0.7018640041351318 -0.12013400346040726 -0.7021070122718811
          0.56427001953125 -0.17551399767398834 -0.8067179918289185 -0.18045400083065033 -0.1632310003042221 0.9699440002441406
          -0.12540900707244873 -0.2599929869174957 0.957431972026825 -0.09608300030231476 -0.11738699674606323 0.9884269833564758
          -0.13178299367427826 -0.05863000079989433 0.9895430207252502 0.055698998272418976 -0.15689900517463684 0.9860429763793945
          0.3821299970149994 -0.28369200229644775 0.8794860243797302 0.335317999124527 -0.2983959913253784 0.8935999870300293
          0.010951999574899673 -0.23631800711154938 0.9716140031814575 0.49800899624824524 -0.30597901344299316 0.8113960027694702
          -0.028741000220179558 -0.2114740014076233 0.9769610166549683 -0.7177640199661255 -0.04932599887251854 0.6945369839668274
          -0.6956110000610352 -0.12633900344371796 0.7072229981422424 -0.5486440062522888 -0.19943399727344513 0.8119210004806519
          -0.621662974357605 -0.0725570023059845 0.7799170017242432 -0.3845199942588806 -0.07697000354528427 0.9199020266532898
          -0.9090250134468079 0.15330800414085388 -0.3875190019607544 -0.6917279958724976 0.1982170045375824 -0.6944220066070557
          -0.9608910083770752 0.21031199395656586 -0.18016000092029572 -0.9627450108528137 0.06961999833583832 0.26129499077796936
          -0.9939200282096863 0.09029699862003326 -0.06299900263547897 -0.6878589987754822 -0.01245800033211708 0.725737988948822
          -0.7895110249519348 -0.03337499871850014 0.6128280162811279 -0.8893370032310486 0.04089299961924553 0.45541998744010925
          -0.3759329915046692 0.20614899694919586 -0.9034249782562256 0.07073099911212921 0.2868179976940155 -0.9553710222244263
          0.37513700127601624 0.2969290018081665 -0.8781260251998901 0.3323560059070587 0.2903690040111542 -0.8973429799079895
          0.556954026222229 0.11074700206518173 -0.8231269717216492 0.47234800457954407 0.19452300667762756 -0.8596789836883545
          0.6000049710273743 0.02771499939262867 -0.7995160222053528 0.6460739970207214 0.022216999903321266 -0.7629510164260864
          -0.17328999936580658 0.31676700711250305 0.9325389862060547 -0.05630199983716011 -0.002566999988630414 0.9984099864959717
          -0.1485529989004135 0.13296599686145782 0.9799249768257141 -0.2839600145816803 0.41099798679351807 0.8662829995155334
          -0.36256998777389526 0.3924649953842163 0.8452889919281006 -0.3528999984264374 0.5210199952125549 0.7771739959716797
          -0.11157599836587906 0.7667499780654907 0.6321750283241272 -0.08798299729824066 0.8645870089530945 0.4947200119495392
          0.3833479881286621 0.9133639931678772 -0.13715200126171112 0.5250229835510254 0.8497790098190308 -0.04718500003218651
          0.5301060080528259 0.8435389995574951 0.08619499951601028 -0.27868300676345825 0.8970339894294739 0.34302300214767456
          -0.2925969958305359 0.9054470062255859 0.3074930012226105 -0.0660490021109581 0.8828610181808472 0.4649670124053955
          0.28404900431632996 0.9414880275726318 0.181428000330925 0.5652279853820801 -0.08194500207901001 -0.8208550214767456
          0.5478739738464355 0.004042999818921089 -0.8365510106086731 0.4699440002441406 0.4466730058193207 -0.7613379955291748
          0.4312649965286255 0.5387589931488037 -0.7237060070037842 -0.43240898847579956 0.8032389879226685 0.40967100858688354
          0.2738400101661682 0.7830280065536499 -0.5584610104560852 0.17332600057125092 0.936913013458252 -0.30356401205062866
          -0.28204798698425293 0.8802809715270996 0.3815160095691681 0.1772110015153885 0.9760199785232544 0.1264130026102066
          0.37604400515556335 0.7304790019989014 -0.5700799822807312 0.7862769961357117 -0.04264400154352188 -0.6164010167121887
          0.7076460123062134 -0.000009999999747378752 -0.7065669894218445 0.5184659957885742 -0.202906996011734 -0.8306760191917419
          0.5888990163803101 -0.22618399560451508 -0.7759119868278503 0.5649740099906921 -0.16165299713611603 -0.8091179728507996
          0.7127130031585693 -0.11242999881505966 -0.6923869848251343 0.48215600848197937 -0.18578800559043884 -0.856158971786499
          0.3950349986553192 -0.14977599680423737 -0.9063739776611328 -0.012338000349700451 -0.20333999395370483 0.9790310263633728
          -0.07813400030136108 -0.2793079912662506 0.9570170044898987 0.04561600089073181 -0.19455699622631073 0.9798300266265869
          0.013907999731600285 -0.12431000173091888 0.9921460151672363 0.05440700054168701 -0.13224799931049347 0.9897220134735107
          -0.4177989959716797 -0.0001829999964684248 0.9085389971733093 -0.22533899545669556 0.08809500187635422 0.9702900052070618
          0.09426899999380112 -0.10566899925470352 0.9899230003356934 0.1115339994430542 -0.09270399808883667 0.9894269704818726
          0.0710040032863617 0.08683700114488602 0.9936890006065369 0.6478809714317322 -0.022117000073194504 0.7614200115203857
          0.4392380118370056 -0.23405300080776215 0.8673459887504578 0.3647119998931885 -0.11470299959182739 0.9240279793739319
          0.7344470024108887 -0.2949199974536896 0.6112359762191772 0.6427770256996155 -0.2994050085544586 0.7051200270652771
          0.6727460026741028 -0.3173060119152069 0.668379008769989 0.17590899765491486 -0.22692400217056274 0.9578940272331238
          0.7304779887199402 -0.3193710148334503 0.6036580204963684 0.4240860044956207 -0.24475200474262238 0.8719220161437988
          0.7846189737319946 -0.2840709984302521 0.5510690212249756 -0.7166609764099121 -0.055730000138282776 0.6951910257339478
          -0.6054930090904236 0.030798999592661858 0.7952539920806885 -0.8678910136222839 0.03819200024008751 -0.4952850043773651
          -0.9366790056228638 0.04266799986362457 -0.34758099913597107 -0.9751499891281128 0.0037219999358057976 -0.22151300311088562
          -0.6993160247802734 0.047308001667261124 -0.7132449746131897 -0.9974849820137024 -0.07084999978542328 -0.002131999935954809
          -0.9679020047187805 -0.09076099842786789 0.2343669980764389 -0.753944993019104 -0.15524500608444214 0.6383309960365295
          -0.6857420206069946 -0.25602200627326965 0.6813300251960754 -0.914654016494751 -0.19397300481796265 0.35465800762176514
          -0.9223510026931763 -0.0819230005145073 0.37756800651550293 0.087567999958992 0.1888200044631958 -0.9781000018119812
          -0.20754100382328033 0.1451209932565689 -0.9674019813537598 -0.37946298718452454 0.04492099955677986 -0.9241160154342651
          0.3928230106830597 0.2141910046339035 -0.8943219780921936 0.491021990776062 0.21723300218582153 -0.8436269760131836
          0.5702210068702698 0.2508539855480194 -0.7822530269622803 0.5633730292320251 0.1934709995985031 -0.8032310009002686
          0.6578440070152283 0.12417399883270264 -0.7428470253944397 0.7989640235900879 0.036125000566244125 -0.600292980670929
          -0.07208099961280823 0.30716899037361145 0.9489210247993469 -0.023700999096035957 0.6138280034065247 0.7890840172767639
          0.11669199913740158 -0.026521999388933182 0.9928140044212341 0.0788860023021698 0.2443159967660904 0.9664809703826904
          -0.20086799561977386 0.6276410222053528 0.7521430253982544 0.2092610001564026 0.7758970260620117 0.5951420068740845
          0.5303379893302917 0.847786009311676 -0.0006319999811239541 0.4390009939670563 0.8957970142364502 0.06947200000286102
          0.5813459753990173 0.8123360276222229 0.04633399844169617 0.46512800455093384 0.8545849919319153 0.2309570014476776
          0.5951290130615234 0.8034939765930176 0.014798000454902649 0.6049619913101196 0.7962390184402466 0.00495699979364872
          0.19697600603103638 0.8384339809417725 0.5081629753112793 0.06494999676942825 0.7687450051307678 0.636247992515564
          -0.06435099989175797 0.7673640251159668 0.6379740238189697 0.48371198773384094 0.8662019968032837 0.1253650039434433
          0.27911001443862915 0.8534590005874634 0.4401189982891083 0.32843300700187683 0.9091669917106628 0.2560200095176697
          0.6157060265541077 0.0829010009765625 -0.7836030125617981 0.640500009059906 -0.047568000853061676 -0.7664840221405029
          0.5030249953269958 0.1916559934616089 -0.8427540063858032 0.6037449836730957 0.35244399309158325 -0.7150350213050842
          0.5520439743995667 0.6386010050773621 -0.5361300110816956 0.302606999874115 0.8656319975852966 -0.3988859951496124
          0.3598729968070984 0.917011022567749 -0.17199300229549408 -0.0843140035867691 0.8778420090675354 0.47147101163864136
          0.4233059883117676 0.8497920036315918 0.31411200761795044 0.499796986579895 0.8655499815940857 0.03202199935913086
          0.21601399779319763 0.8334630131721497 0.5086029767990112 0.4772059917449951 0.8020790219306946 -0.3590889871120453
          0.9023370146751404 -0.06797199696302414 -0.42563700675964355 0.5788570046424866 -0.1292179971933365 -0.8051260113716125
          0.6371269822120667 -0.12714900076389313 -0.7601990103721619 0.6482030153274536 -0.1286340057849884 -0.7505239844322205
          0.6517450213432312 -0.08372099697589874 -0.753803014755249 0.6733719706535339 -0.18244799971580505 -0.7164379954338074
          0.5543659925460815 -0.1932000070810318 -0.8095380067825317 0.6448529958724976 -0.2660819888114929 -0.7164949774742126
          0.4859960079193115 -0.1863500028848648 -0.8538619875907898 0.7824270129203796 -0.2020139992237091 -0.5890650153160095
          0.6473219990730286 -0.30439698696136475 -0.6987959742546082 0.18655499815940857 -0.1298069953918457 0.9738309979438782
          0.25267699360847473 -0.12177900224924088 0.9598569869995117 0.2979719936847687 -0.05973299965262413 0.9527040123939514
          -0.4199739992618561 0.10065200179815292 0.9019370079040527 -0.24131900072097778 0.18782299757003784 0.9520959854125977
          0.06565800309181213 0.14029400050640106 0.9879310131072998 0.3549230098724365 -0.08477800339460373 0.9310439825057983
          0.3702619969844818 0.04337799921631813 0.927914023399353 0.28184300661087036 0.10776200145483017 0.9533900022506714
          0.8611879944801331 0.0038250000216066837 0.5082719922065735 0.7675439715385437 -0.026341000571846962 0.6404550075531006
          0.7792990207672119 -0.16484199464321136 0.6045820116996765 0.7421789765357971 -0.2229509949684143 0.6320310235023499
          0.27314698696136475 -0.045763999223709106 0.9608830213546753 0.7234569787979126 -0.035971999168395996 0.6894320249557495
          0.9448720216751099 -0.021483000367879868 0.3267340064048767 0.9310770034790039 -0.3059540092945099 0.19871599972248077