<?xml version="1.0"?>
<VTKFile type="PolyData" version="0.1" byte_order="LittleEndian" header_type="UInt32" compressor="vtkZLibDataCompressor">
  <PolyData>
    <Piece NumberOfPoints="806" NumberOfVerts="0" NumberOfLines="0" NumberOfStrips="0" NumberOfPolys="1608">
      <PointData Normals="Normals">
        <DataArray type="Float32" Name="Normals" NumberOfComponents="3" format="ascii" RangeMin="0.9999991860765287" RangeMax="1.0000007328679208">
          -0.9226970076560974 0.013461999595165253 -0.3852919936180115 -0.8846579790115356 -0.012072999961674213 -0.46608299016952515
          -0.9485800266265869 0.03628399968147278 -0.3144510090351105 -0.9980760216712952 0.043118998408317566 -0.04456600174307823
          0.7972760200500488 -0.0014319999609142542 -0.603613018989563 0.21337899565696716 -0.10739299654960632 -0.9710490107536316
          -0.9640439748764038 0.013566999696195126 -0.2653979957103729 -0.7752429842948914 -0.04303799942135811 -0.6301950216293335
          -0.9949179887771606 0.09936200082302094 0.016316000372171402 -0.9968299865722656 0.07751099765300751 0.017938999459147453
          -0.9857810139656067 0.10882700234651566 -0.12803199887275696 -0.8376209735870361 -0.01209300011396408 -0.5461180210113525
          -0.8772720098495483 0.09379299730062485 -0.4707399904727936 -0.995169997215271 0.060756999999284744 0.07710299640893936
          -0.9033200144767761 -0.024379000067710876 -0.4282749891281128 -0.9952719807624817 0.0439319983124733 0.0866210013628006
          -0.995352029800415 0.01822200044989586 -0.09455999732017517 -0.9944369792938232 0.10367000102996826 0.018619999289512634
          0.7971839904785156 -0.05892699956893921 -0.6008539795875549 -0.7277809977531433 -0.04650399833917618 -0.6842309832572937
          -0.6984530091285706 -0.01718199998140335 -0.7154499888420105 -0.7066609859466553 -0.015309999696910381 -0.7073869705200195
          -0.8276919722557068 -0.050234999507665634 -0.5589290261268616 -0.9770410060882568 0.06108500063419342 0.20410700142383575
          -0.9793559908866882 0.07538700103759766 0.18756000697612762 -0.9943090081214905 0.09968700259923935 -0.03757299855351448
          -0.9369999766349792 0.11914999783039093 -0.3283829987049103 -0.7873690128326416 0.06699799746274948 -0.6128299832344055
          -0.7607510089874268 0.10755199939012527 -0.6400709748268127 -0.9967100024223328 0.02980099990963936 0.07536999881267548
          -0.9951419830322266 0.05778900161385536 0.07970699667930603 -0.9832199811935425 0.028296999633312225 0.18021400272846222
          -0.4978199899196625 -0.03459100052714348 -0.8665900230407715 -0.716454029083252 -0.005797000136226416 -0.6976100206375122
          -0.9247940182685852 0.026048999279737473 -0.3795740008354187 -0.9621580243110657 0.0846100002527237 0.2590239942073822
          0.9998229742050171 0.018032999709248543 0.005413000006228685 -0.9740989804267883 0.2113730013370514 -0.08032699674367905
          0.994113028049469 0.08824300020933151 0.06287500262260437 -0.9917569756507874 0.12744100391864777 -0.013265999965369701
          -0.9322140216827393 0.35092300176620483 -0.0884919986128807 -0.48433300852775574 -0.04772200062870979 -0.8735809922218323
          -0.6556980013847351 -0.06463299691677094 -0.7522519826889038 -0.6518589854240417 0.05190100148320198 -0.7565630078315735
          -0.021765999495983124 -0.02977300062775612 -0.9993199706077576 -0.39375901222229004 -0.019826000556349754 -0.9190000295639038
          -0.930832028388977 0.025937000289559364 0.36452600359916687 -0.9416289925575256 -0.002624999964609742 0.33664199709892273
          -0.9482300281524658 0.06878399848937988 0.31004598736763 -0.8707029819488525 0.004430999979376793 0.4917890131473541
          -0.9768829941749573 0.0647049993276596 0.2037460058927536 -0.9333410263061523 0.042458001524209976 0.356471985578537
          -0.9966719746589661 0.0812930017709732 -0.005973000079393387 -0.922872006893158 0.041802000254392624 0.3828299939632416
          -0.9505159854888916 0.02983199991285801 -0.3092400133609772 -0.7672939896583557 0.037101998925209045 -0.6402220129966736
          -0.9943100214004517 0.081216000020504 -0.06893199682235718 -0.5217049717903137 -0.009517000056803226 -0.853073000907898
          -0.9753010272979736 -0.007903999648988247 0.22074000537395477 -0.9848889708518982 0.03194599971175194 0.1702120006084442
          -0.9925810098648071 0.09160000085830688 0.07995499670505524 -0.9630950093269348 0.17319700121879578 0.2060369998216629
          -0.9394639730453491 -0.032614998519420624 0.34109100699424744 -0.3796580135822296 -0.006651000119745731 -0.9251030087471008
          -0.197625994682312 -0.04801899939775467 -0.9791010022163391 0.9434739947319031 -0.030177000910043716 -0.33007100224494934
          0.7493399977684021 -0.07066400349140167 -0.6584050059318542 -0.5622339844703674 0.09639099985361099 -0.8213409781455994
          -0.861316978931427 0.2087550014257431 -0.46320000290870667 -0.9872080087661743 0.1407890021800995 0.07481999695301056
          -0.8946459889411926 0.4220309853553772 -0.14662200212478638 -0.9608280062675476 0.2709740102291107 0.058152999728918076
          -0.756102979183197 0.5555790066719055 -0.34589099884033203 -0.7272819876670837 0.6481029987335205 -0.2258860021829605
          -0.8568429946899414 0.5109419822692871 -0.06897500157356262 -0.3604139983654022 -0.05147299915552139 -0.9313709735870361
          -0.3798399865627289 -0.05179800093173981 -0.923600971698761 -0.15010499954223633 -0.024368999525904655 -0.9883700013160706
          -0.11466299742460251 -0.07701999694108963 -0.990414023399353 -0.10400799661874771 -0.053206998854875565 -0.9931520223617554
          -0.8844630122184753 -0.027417000383138657 0.46580401062965393 -0.732778012752533 -0.0694580003619194 0.6769139766693115
          -0.8134509921073914 -0.05774499848484993 0.5787590146064758 -0.6936119794845581 -0.0198340006172657 0.7200750112533569
          -0.8459630012512207 0.033574000000953674 0.5321829915046692 -0.8821240067481995 0.02245499938726425 0.4704819917678833
          -0.9826970100402832 0.08913300186395645 0.16236400604248047 -0.9944729804992676 0.07223500311374664 0.07619299739599228
          -0.9280279874801636 0.0527850016951561 0.36875098943710327 -0.8156899809837341 0.03210199996829033 -0.577597975730896
          -0.9756119847297668 0.05300299823284149 -0.21300600469112396 -0.5463979840278625 0.013872000388801098 -0.8374099731445312
          -0.34748199582099915 -0.07664000242948532 -0.9345499873161316 -0.10254599899053574 -0.12714999914169312 -0.9865679740905762
          -0.909824013710022 -0.06229399889707565 0.41029199957847595 -0.9507459998130798 -0.025090999901294708 0.30895501375198364
          -0.8840749859809875 0.006794000044465065 0.4672960042953491 -0.8291450142860413 0.23517900705337524 0.5071579813957214
          -0.836762011051178 0.5336250066757202 0.12277700006961823 -0.9110890030860901 0.3476420044898987 0.2214989960193634
          -0.14575399458408356 -0.06294500082731247 -0.9873160123825073 -0.1440020054578781 -0.03503299877047539 -0.9889569878578186
          -0.3025459945201874 0.05182399973273277 -0.9517250061035156 -0.14850400388240814 -0.051511000841856 -0.9875689744949341
          -0.3283360004425049 0.19516199827194214 -0.9241790175437927 -0.5894380211830139 0.3203139901161194 -0.7415940165519714
          -0.7874709963798523 0.36021101474761963 -0.5001369714736938 -0.8353130221366882 0.5322120189666748 0.13785099983215332
          -0.6013929843902588 0.7290800213813782 -0.32675498723983765 -0.534958004951477 0.4980889856815338 -0.6824420094490051
          -0.6685230135917664 0.7387139797210693 -0.08590099960565567 -0.4136210083961487 0.8448669910430908 -0.33928999304771423
          -0.4416950047016144 0.8889470100402832 -0.12115500122308731 -0.6038519740104675 0.788532018661499 0.11653299629688263
          -0.5022739768028259 0.8551309704780579 0.1283400058746338 0.15691399574279785 -0.13117000460624695 -0.978863000869751
          -0.06478700041770935 -0.00380899989977479 -0.9978920221328735 0.0006009999779053032 0.012404999695718288 -0.9999229907989502
          0.3288919925689697 -0.15273700654506683 -0.9319339990615845 0.4508360028266907 -0.23844200372695923 -0.8601700067520142
          0.3212890028953552 -0.15998999774456024 -0.933368980884552 0.12924499809741974 -0.0750569999217987 -0.9887679815292358
          0.17678500711917877 -0.09350000321865082 -0.9797980189323425 -0.6943269968032837 -0.14376200735569 0.7051540017127991
          -0.6446269750595093 -0.07489600032567978 0.7608199715614319 -0.5638189911842346 -0.12231100350618362 0.8167920112609863
          -0.821494996547699 -0.09883899986743927 0.561585009098053 -0.8069980144500732 0.019585000351071358 0.5902299880981445
          -0.6955450177192688 -0.01928500086069107 0.7182239890098572 -0.5488190054893494 -0.030635999515652657 0.8353800177574158
          -0.4333310127258301 -0.08403299748897552 0.8973079919815063 -0.533515989780426 -0.10325100272893906 0.839464008808136
          -0.8492259979248047 -0.04134900122880936 0.5264080166816711 -0.7647079825401306 -0.007956000044941902 0.6443279981613159
          -0.9767040014266968 0.10413599759340286 0.18762899935245514 -0.9916859865188599 0.12022999674081802 -0.04585999995470047
          -0.9285579919815063 0.07216300070285797 0.3641059994697571 -0.5191109776496887 0.200313001871109 -0.8309019804000854
          -0.8979079723358154 0.15036199986934662 -0.4137060046195984 -0.19783300161361694 0.020069999620318413 -0.9800300002098083
          0.057923998683691025 -0.1379839926958084 -0.988739013671875 0.3347800076007843 -0.20692500472068787 -0.9192960262298584
          -0.853771984577179 -0.11365299671888351 0.5080909729003906 -0.8456940054893494 -0.008685000240802765 0.533598005771637
          -0.7134469747543335 0.2528209984302521 0.6535090208053589 -0.7067890167236328 0.4946649968624115 0.5057229995727539
          -0.7974269986152649 0.5132790207862854 0.31726300716400146 -0.6141800284385681 0.7687889933586121 0.1781730055809021
          -0.3476699888706207 0.934798002243042 0.07264800369739532 -0.6697800159454346 0.6694899797439575 0.3212130069732666
          0.25003600120544434 -0.08211600035429001 -0.9647480249404907 0.16070500016212463 -0.11477000266313553 -0.9803069829940796
          0.12633399665355682 -0.12403099983930588 -0.9842029809951782 -0.03645399957895279 0.07029499858617783 -0.9968600273132324
          0.07273899763822556 -0.05579699948430061 -0.9957889914512634 -0.0729369968175888 0.3194819986820221 -0.9447810053825378
          -0.25676700472831726 0.42719700932502747 -0.8669340014457703 -0.5423229932785034 0.7065340280532837 -0.4546380043029785
          -0.3872619867324829 0.6417490243911743 -0.6619560122489929 -0.3263329863548279 0.9414860010147095 0.08432500064373016
          -0.13452699780464172 0.9909080266952515 0.0020210000220686197 -0.11604200303554535 0.7384600043296814 -0.6642370223999023
          -0.10829199850559235 0.9823979735374451 0.15220600366592407 -0.08079700171947479 0.9794110059738159 0.18500100076198578
          0.5704249739646912 -0.24616000056266785 -0.7835950255393982 0.5556259751319885 -0.22819499671459198 -0.7995039820671082
          0.6239529848098755 -0.20832200348377228 -0.7531830072402954 0.6446689963340759 -0.23183099925518036 -0.7284610271453857
          0.6460620164871216 -0.22271199524402618 -0.7300699949264526 0.4497630000114441 -0.11829300224781036 -0.8852800130844116
          -0.5540170073509216 -0.20629699528217316 0.8065400123596191 -0.660614013671875 -0.1569560021162033 0.7341349720954895
          -0.7924990057945251 -0.1410059928894043 0.5933480262756348 -0.5099130272865295 -0.17776399850845337 0.8416579961776733
          -0.5022879838943481 -0.21604299545288086 0.8372769951820374 -0.35075101256370544 -0.17744800448417664 0.9195029735565186
          -0.3620550036430359 -0.11234299838542938 0.9253619909286499 -0.5838750004768372 -0.059223998337984085 0.8096809983253479
          -0.5048559904098511 -0.06805799901485443 0.8605170249938965 -0.47822099924087524 -0.06454499810934067 0.8758640289306641
          -0.3577510118484497 -0.07608699798583984 0.9307119846343994 -0.35793599486351013 -0.08296599984169006 0.9300529956817627
          -0.18991699814796448 -0.14609099924564362 0.9708700180053711 -0.7511770129203796 -0.053637001663446426 0.6579179763793945
          -0.6692579984664917 -0.08346600085496902 0.7383279800415039 -0.6718320250511169 -0.046852000057697296 0.7392200231552124
          -0.5836330056190491 -0.057666998356580734 0.8099679946899414 -0.9658240079879761 0.253044992685318 -0.05614500120282173
          -0.8815129995346069 0.2310429960489273 0.4117699861526489 -0.3838289976119995 0.3479509949684143 -0.8553400039672852
          -0.7636550068855286 0.28441599011421204 -0.5796020030975342 0.002741999924182892 0.26169899106025696 -0.965146005153656
          0.07461100071668625 0.09812899678945541 -0.992372989654541 0.39670801162719727 -0.19258500635623932 -0.8975149989128113
          0.3667469918727875 -0.0026950000319629908 -0.9303169846534729 0.34013301134109497 -0.2570199966430664 -0.9045720100402832
          0.5571650266647339 -0.2291959971189499 -0.7981460094451904 -0.8231499791145325 -0.1460759937763214 0.5487130284309387
          -0.7236949801445007 -0.15486900508403778 0.6725190281867981 -0.7334880232810974 -0.10697299987077713 0.6712319850921631
          -0.7151970267295837 -0.0024840000551193953 0.6989189982414246 -0.5442479848861694 0.11153999716043472 0.8314759731292725
          -0.48789799213409424 0.3382610082626343 0.8046950101852417 -0.5523399710655212 0.5902979969978333 0.5886160135269165
          -0.4983519911766052 0.7395769953727722 0.45240598917007446 -0.2344609946012497 0.9657189846038818 0.11141800135374069
          -0.48643600940704346 0.8119980096817017 0.32255199551582336 0.2020220011472702 0.976777970790863 0.07134799659252167
          0.22117400169372559 0.9573119878768921 -0.18610499799251556 0.43120598793029785 -0.1539659947156906 -0.8890190124511719
          0.5800589919090271 -0.15455900132656097 -0.7997769713401794 0.31187599897384644 -0.10702099651098251 -0.9440760016441345
          0.2512879967689514 -0.03144799917936325 -0.9674010276794434 0.2771979868412018 0.1743829995393753 -0.9448559880256653
          0.10711099952459335 0.4678660035133362 -0.8772850036621094 0.10059099644422531 0.9639099836349487 0.24649199843406677
          0.04465800151228905 0.9434530138969421 0.328482985496521 -0.09801699966192245 0.9281579852104187 0.3590480089187622
          -0.008089999668300152 0.9410560131072998 -0.33815398812294006 -0.061670999974012375 0.9978770017623901 0.020958000794053078
          -0.16084299981594086 0.9403359889984131 0.29982998967170715 -0.03818599879741669 0.8482270240783691 -0.528253972530365
          0.1559789925813675 0.6737629771232605 -0.7222970128059387 0.6914499998092651 -0.20527300238609314 -0.6926469802856445
          0.5768409967422485 -0.14513500034809113 -0.8038600087165833 0.6331089735031128 -0.22286200523376465 -0.7412859797477722
          0.583450973033905 -0.18209700286388397 -0.7914699912071228 0.6184160113334656 -0.227524995803833 -0.7521929740905762
          0.6473360061645508 -0.2136639952659607 -0.7316439747810364 -0.5118190050125122 -0.10056799650192261 0.8531870245933533
          -0.3903369903564453 -0.19811700284481049 0.8991029858589172 -0.34432101249694824 -0.23112499713897705 0.9099590182304382
          -0.21192799508571625 -0.2159619927406311 0.953125 -0.3837699890136719 -0.09447299689054489 0.9185829758644104
          -0.3334999978542328 -0.0901930034160614 0.9384260177612305 -0.21726900339126587 -0.11450699716806412 0.9693719744682312
          -0.04571500048041344 -0.19022400677204132 0.980675995349884 0.03790400177240372 -0.2594110071659088 0.9650229811668396
          -0.103363998234272 -0.21521900594234467 0.9710800051689148 -0.7825409770011902 -0.006006999872624874 0.6225699782371521
          0.9650560021400452 -0.03831100091338158 0.2592270076274872 0.3658129870891571 -0.06273999810218811 0.9285709857940674
          0.7503610253334045 -0.12316399812698364 0.6494529843330383 -0.7124829888343811 -0.12454299628734589 0.6905480027198792
          -0.6332060098648071 -0.0820619985461235 0.7696200013160706 -0.4604310095310211 -0.07076600193977356 0.8848699927330017
          -0.7318140268325806 0.3693229854106903 -0.5727559924125671 -0.8958590030670166 0.39657801389694214 -0.20040899515151978
          -0.9292700290679932 0.35561099648475647 0.09998799860477448 -0.9249410033226013 0.35738399624824524 0.12946300208568573
          -0.7899630069732666 0.24809299409389496 0.5607219934463501 -0.7581530213356018 0.12260200083255768 0.6404470205307007
          -0.14892099797725677 0.3769820034503937 -0.9141700267791748 0.00009600000339560211 0.3666040003299713 -0.9303770065307617
          0.335671991109848 0.2292719930410385 -0.9136509895324707 0.3210819959640503 0.13162800669670105 -0.9378589987754822
          0.526731014251709 -0.07383199781179428 -0.8468199968338013 0.523177981376648 -0.009440000168979168 -0.852171003818512
          0.4599980115890503 0.04849499836564064 -0.8865939974784851 -0.39924898743629456 0.20448899269104004 0.8937469720840454
          -0.28236401081085205 0.10116100311279297 0.9539589881896973 -0.4333930015563965 0.5919359922409058 0.6795459985733032
          -0.2716119885444641 0.31703999638557434 0.9086869955062866 -0.2537730038166046 0.5336639881134033 0.8067229986190796
          -0.3098909854888916 0.7430769801139832 0.5931310057640076 -0.3869360089302063 0.7572169899940491 0.5262159705162048
          -0.28578299283981323 0.8846009969711304 0.3685219883918762 0.29326799511909485 0.9559919834136963 0.00851800013333559
          0.23277300596237183 0.9711639881134033 0.05155099928379059 0.11588600277900696 0.975383996963501 0.18760499358177185
          0.05321300029754639 0.9284409880638123 0.36765000224113464 0.4340670108795166 0.863552987575531 -0.25663501024246216
          0.6137779951095581 -0.1664319932460785 -0.7717360258102417 0.5680570006370544 -0.1510149985551834 -0.8090149760246277
          0.5174540281295776 -0.14691899716854095 -0.8430039882659912 0.45175901055336 -0.11510899662971497 -0.8846830129623413
          0.47031500935554504 -0.06451600044965744 -0.880137026309967 0.5385220050811768 0.16067199409008026 -0.8271510004997253
          0.4028710126876831 0.3582789897918701 -0.8422179818153381 -0.1874690055847168 0.895654022693634 0.4033089876174927
          0.15416499972343445 0.8819630146026611 -0.44539299607276917 -0.06036200001835823 0.9904329776763916 0.1240909993648529
          0.4001530110836029 0.586982011795044 -0.7037969827651978 0.5520719885826111 -0.07855899631977081 -0.8300870060920715
          0.5431609749794006 -0.16226400434970856 -0.8238000273704529 0.6717810034751892 -0.12093300372362137 -0.7308120131492615
          0.7179970145225525 -0.17863699793815613 -0.6727319955825806 0.6126840114593506 -0.2804360091686249 -0.7389000058174133
          0.596418023109436 -0.19130299985408783 -0.7795439958572388 0.5350109934806824 -0.23030999302864075 -0.8128470182418823
          0.5475059747695923 -0.27757400274276733 -0.7894240021705627 0.6928380131721497 -0.21219700574874878 -0.6891639828681946
          0.5510939955711365 -0.24797900021076202 -0.7967450022697449 -0.22028200328350067 -0.14042900502681732 0.96527498960495
          -0.17865900695323944 -0.24369600415229797 0.953253984451294 -0.13079799711704254 -0.10656899958848953 0.9856650233268738
          -0.15822599828243256 -0.043480001389980316 0.9864450097084045 0.014194999821484089 -0.16635000705718994 0.9859650135040283
          0.32239100337028503 -0.3360239863395691 0.884958028793335 0.27377599477767944 -0.3442299962043762 0.898082971572876
          -0.040619999170303345 -0.23887600004673004 0.9702000021934509 0.4368390142917633 -0.3727250099182129 0.8186870217323303
          -0.07666900008916855 -0.20888499915599823 0.9749299883842468 -0.7314749956130981 0.04650700092315674 0.6802809834480286
          -0.7202200293540955 -0.032871000468730927 0.6929659843444824 -0.5894150137901306 -0.09542600065469742 0.802174985408783
          -0.6411759853363037 0.010131999850273132 0.7673270106315613 -0.40974700450897217 -0.027018999680876732 0.9117990136146545
          -0.8718240261077881 0.2769109904766083 -0.40403398871421814 -0.6443600058555603 0.29288700222969055 -0.7064120173454285
          -0.9195749759674072 0.3397429883480072 -0.19737300276756287 -0.949321985244751 0.19910800457000732 0.24319599568843842
          -0.9709550142288208 0.22492699325084686 -0.08157599717378616 -0.6974599957466125 0.07885300368070602 0.7122730016708374
          -0.7988089919090271 0.0723389983177185 0.5972200036048889 -0.8844429850578308 0.1600469946861267 0.4383449852466583
          -0.326337993144989 0.2584730088710785 -0.9092280268669128 0.12807999551296234 0.2777180075645447 -0.9520859718322754
          0.42943501472473145 0.2460390031337738 -0.8689370155334473 0.3865540027618408 0.2454569935798645 -0.8890029788017273
          0.5831180214881897 0.036667998880147934 -0.8115590214729309 0.511434018611908 0.13133299350738525 -0.8492270112037659
          0.613985002040863 -0.05149799957871437 -0.7876359820365906 0.6581429839134216 -0.06335700303316116 -0.7502229809761047
          -0.14716599881649017 0.3342820107936859 0.9309120178222656 -0.07595700025558472 0.0016919999616220593 0.9971100091934204
          -0.14856800436973572 0.14865100383758545 0.9776660203933716 -0.24312500655651093 0.4424290060997009 0.8632190227508545
          -0.32385799288749695 0.43411800265312195 0.840628981590271 -0.2947799861431122 0.5611230134963989 0.7734630107879639
          -0.018743999302387238 0.7726989984512329 0.6344959735870361 0.020594000816345215 0.8668360114097595 0.4981679916381836
          0.5067330002784729 0.8531180024147034 -0.12414500117301941 0.6366080045700073 0.7705259919166565 -0.03192399814724922
          0.6381000280380249 0.7632319927215576 0.1015160009264946 -0.16084900498390198 0.9254670143127441 0.34298500418663025
          -0.17271900177001953 0.9358140230178833 0.30727800726890564 0.04538699984550476 0.882079005241394 0.46891000866889954
          0.4058670103549957 0.8934209942817688 0.19253599643707275 0.5650820136070251 -0.15534600615501404 -0.810276985168457
          0.5598639845848083 -0.06774599850177765 -0.8258110284805298 0.5414069890975952 0.38110899925231934 -0.7494230270385742
          0.5148090124130249 0.47757700085639954 -0.7119640111923218 -0.32722800970077515 0.8532220125198364 0.4061200022697449
          0.3889249861240387 0.7402700185775757 -0.5483949780464172 0.30522599816322327 0.9055920243263245 -0.29451799392700195
          -0.16717000305652618 0.909188985824585 0.3813520073890686 0.3057740032672882 0.9423789978027344 0.13573700189590454
          0.4831550121307373 0.6744610071182251 -0.5582680106163025 0.7852749824523926 -0.14718399941921234 -0.6013979911804199
          0.7149760127067566 -0.09392199665307999 -0.6928120255470276 0.5024849772453308 -0.26877298951148987 -0.8217480182647705
          0.5679849982261658 -0.3016110062599182 -0.7657830119132996 0.5536990165710449 -0.23432999849319458 -0.7990670204162598
          0.704433023929596 -0.206044003367424 -0.6792050004005432 0.46935099363327026 -0.24679000675678253 -0.8478230237960815
          0.3889490067958832 -0.1990630030632019 -0.8994960188865662 -0.059386998414993286 -0.2030850052833557 0.9773589968681335
          -0.13440899550914764 -0.26926499605178833 0.9536409974098206 -0.0007459999760612845 -0.2022619992494583 0.9793310165405273
          -0.022866999730467796 -0.1283860057592392 0.9914609789848328 0.016188999637961388 -0.14177100360393524 0.9897670149803162
          -0.431984007358551 0.05366399884223938 0.9002829790115356 -0.23056699335575104 0.11462999880313873 0.966280996799469
          0.05924199894070625 -0.12084300071001053 0.9909020066261292 0.07804600149393082 -0.11037799715995789 0.9908210039138794
          0.0624690018594265 0.07302399724721909 0.9953719973564148 0.6360200047492981 -0.03431300073862076 0.7709090113639832
          0.38593098521232605 -0.2946060001850128 0.8742219805717468 0.32724499702453613 -0.16639499366283417 0.9301739931106567
          0.6751949787139893 -0.3942129909992218 0.6234639883041382 0.5819219946861267 -0.3865000009536743 0.7155309915542603
          0.6114299893379211 -0.4062269926071167 0.6790680289268494 0.12432099878787994 -0.2519330084323883 0.9597259759902954
          0.6733989715576172 -0.40623199939727783 0.6176649928092957 0.3694069981575012 -0.3031199872493744 0.8784400224685669
          0.7399089932441711 -0.36289501190185547 0.566428005695343 -0.731311023235321 0.040022000670433044 0.6808689832687378
          -0.6113590002059937 0.11024200171232224 0.7836369872093201 -0.8446159958839417 0.15764200687408447 -0.5116379857063293
          -0.9150810241699219 0.1709109991788864 -0.3652609884738922 -0.9609730243682861 0.13714300096035004 -0.24025699496269226
          -0.6720110177993774 0.1444779932498932 -0.7263110280036926 -0.9976099729537964 0.06558000296354294 -0.021769000217318535
          -0.9757230281829834 0.041051000356674194 0.21512599289417267 -0.780610978603363 -0.053325001150369644 0.6227380037307739
          -0.7276059985160828 -0.16258899867534637 0.666450023651123 -0.9394339919090271 -0.06885500252246857 0.3357419967651367
          -0.9322749972343445 0.043147001415491104 0.3591670095920563 0.13190500438213348 0.17844699323177338 -0.9750679731369019
          -0.16663500666618347 0.17531299591064453 -0.9703080058097839 -0.3513219952583313 0.0992790013551712 -0.9309759736061096
          0.43598198890686035 0.16171899437904358 -0.8853060007095337 0.5326859951019287 0.15120600163936615 -0.8326960206031799
          0.6144649982452393 0.17352800071239471 -0.7696239948272705 0.6003320217132568 0.11769299954175949 -0.7910439968109131
          0.6832789778709412 0.03596600145101547 -0.7292709946632385 0.8082590103149414 -0.0709410011768341 -0.5845379829406738
          -0.0484360009431839 0.3109720051288605 0.949184000492096 0.04434899985790253 0.6087049841880798 0.7921559810638428
          0.09226799756288528 -0.0455159991979599 0.9946929812431335 0.0921659991145134 0.22803199291229248 0.9692819714546204
          -0.12855400145053864 0.6465950012207031 0.7519230246543884 0.30108100175857544 0.7381929755210876 0.603672981262207
          0.6406099796295166 0.7677239775657654 0.014766000211238861 0.5552970170974731 0.8274620175361633 0.08337199687957764
          0.6853970289230347 0.7254869937896729 0.06244099885225296 0.5723180174827576 0.7825509905815125 0.2450830042362213
          0.6985020041465759 0.7149320244789124 0.031084999442100525 0.7074400186538696 0.7064489722251892 0.02138799987733364
          0.29902899265289307 0.802079975605011 0.5169619917869568 0.15621399879455566 0.7505850195884705 0.6420429944992065
          0.027962999418377876 0.766834020614624 0.6412360072135925 0.594452977180481 0.7918660044670105 0.13990899920463562
          0.3837999999523163 0.8060160279273987 0.4505949914455414 0.44389501214027405 0.8551309704780579 0.2677850127220154
          0.6367480158805847 0.0009549999958835542 -0.7710710167884827 0.6431959867477417 -0.13171499967575073 -0.7542880177497864
          0.5410950183868408 0.12426400184631348 -0.8317300081253052 0.6602090001106262 0.26945000886917114 -0.7010859847068787
          0.6443589925765991 0.5592790246009827 -0.5215449929237366 0.4254319965839386 0.8177199959754944 -0.38773900270462036
          0.4846090078353882 0.8600710034370422 -0.1594730019569397 0.02649799920618534 0.8795610070228577 0.4750480055809021
          0.5286080241203308 0.7831910252571106 0.32739099860191345 0.6121129989624023 0.789376974105835 0.046914998441934586
          0.3171890079975128 0.7945910096168518 0.5177029967308044 0.5888990163803101 0.7308899760246277 -0.3449609875679016
          0.8928409814834595 -0.18860399723052979 -0.40897899866104126 0.5718140006065369 -0.2041040062904358 -0.794588029384613
          0.6289139986038208 -0.21010500192642212 -0.7485479712486267 0.6394739747047424 -0.2131199985742569 -0.7386829853057861
          0.6491860151290894 -0.16910600662231445 -0.7415930032730103 0.6564429998397827 -0.27000999450683594 -0.704397976398468
          0.5389540195465088 -0.2641200125217438 -0.7998560070991516 0.6168079972267151 -0.34897899627685547 -0.7055220007896423
          0.47304201126098633 -0.24785800278186798 -0.8454570174217224 0.7592679858207703 -0.30464398860931396 -0.5750679969787598
          0.6137279868125916 -0.3873150050640106 -0.6879860162734985 0.14776599407196045 -0.15724100172519684 0.9764429926872253
          0.21459299325942993 -0.15833500027656555 0.9637839794158936 0.2680419981479645 -0.10296999663114548 0.9578890204429626
          -0.42023301124572754 0.15381500124931335 0.8942850232124329 -0.2324099987745285 0.215705007314682 0.9483969807624817
          0.06448200345039368 0.12671299278736115 0.9898409843444824 0.3251410126686096 -0.11026600003242493 0.9392150044441223
          0.3575429916381836 0.02153800055384636 0.9336479902267456 0.27483999729156494 0.06517700105905533 0.9592779874801636
          0.8577229976654053 -0.009685000404715538 0.5140209794044495 0.7587990164756775 -0.04447000101208687 0.6498050093650818
          0.7373999953269958 -0.2714200019836426 0.6185240149497986 0.6921719908714294 -0.3240480124950409 0.6448959708213806
          0.2451840043067932 -0.08581800013780594 0.9656710028648376 0.6978939771652222 -0.13650499284267426 0.7030720114707947
          0.9264619946479797 -0.15102800726890564 0.344758003950119 0.8766739964485168 -0.4305039942264557 0.21472999453544617