<?xml version="1.0"?>
<VTKFile type="PolyData" version="0.1" byte_order="LittleEndian" header_type="UInt32" compressor="vtkZLibDataCompressor">
  <PolyData>
    <Piece NumberOfPoints="1914" NumberOfVerts="0" NumberOfLines="0" NumberOfStrips="0" NumberOfPolys="3824">
      <PointData Normals="Normals">
        <DataArray type="Float32" Name="Normals" NumberOfComponents="3" format="ascii" RangeMin="0.9999992418398665" RangeMax="1.0000008344735516">
          -0.6036670207977295 -0.3604710102081299 0.711089015007019 -0.5435910224914551 -0.4816960096359253 0.6873700022697449
          -0.42871901392936707 -0.36703500151634216 0.8255220055580139 -0.5626540184020996 -0.2701449990272522 0.7813079953193665
          -0.730023980140686 -0.4639810025691986 0.501783013343811 -0.7133169770240784 -0.34762001037597656 0.6085559725761414
          -0.17457999289035797 -0.3935230076313019 0.9025859832763672 -0.7420759797096252 -0.5663809776306152 0.3585189878940582
          -0.6076689958572388 -0.6050050258636475 0.5144969820976257 -0.3768889904022217 -0.5091090202331543 0.7737979888916016
          -0.2898949980735779 -0.30012398958206177 0.9087830185890198 -0.21790799498558044 -0.35495299100875854 0.9091339707374573
          -0.6816660165786743 -0.21435800194740295 0.6995580196380615 -0.3391459882259369 -0.22468599677085876 0.9135069847106934
          -0.5169270038604736 -0.18717999756336212 0.8353139758110046 -0.7803800106048584 -0.4996330142021179 0.37599700689315796
          -0.7706519961357117 -0.49408701062202454 0.4024600088596344 -0.737555980682373 -0.25274500250816345 0.6262040138244629
          -0.7737079858779907 -0.472460001707077 0.4220860004425049 0.07574400305747986 -0.31706199049949646 0.9453750252723694
          -0.20292599499225616 -0.4359950125217438 0.8767719864845276 0.3133910000324249 -0.2615239918231964 0.9129030108451843
          0.10044900327920914 -0.3503530025482178 0.9312149882316589 -0.6896460056304932 -0.7080270051956177 0.15194499492645264
          -0.7495160102844238 -0.6303049921989441 0.2023410052061081 -0.38854900002479553 -0.6224330067634583 0.6794160008430481
          -0.55485999584198 -0.7562729716300964 0.34667301177978516 -0.1123799979686737 -0.5632529854774475 0.818606972694397
          -0.010474000126123428 -0.48359599709510803 0.8752279877662659 -0.0114139998331666 -0.21638800203800201 0.9762409925460815
          -0.733892023563385 -0.13337700068950653 0.6660439968109131 -0.6693670153617859 -0.11934000253677368 0.7332839965820312
          -0.30905500054359436 -0.13976900279521942 0.9407169818878174 -0.7898910045623779 -0.4714210033416748 0.3922159969806671
          -0.739329993724823 -0.5860880017280579 0.3315010070800781 -0.7583799958229065 -0.45399099588394165 0.4677099883556366
          -0.7461640238761902 -0.44156399369239807 0.49825799465179443 -0.6963019967079163 -0.21783599257469177 0.6838939785957336
          0.3124769926071167 -0.21485500037670135 0.9253079891204834 0.5087360143661499 -0.22959700226783752 0.8297430276870728
          0.3369320034980774 -0.30392900109291077 0.8911250233650208 0.48668399453163147 -0.21492399275302887 0.8467270135879517
          -0.5163689851760864 -0.8558610081672668 0.029410000890493393 -0.5707020163536072 -0.8207380175590515 -0.02623699977993965
          -0.5108519792556763 -0.849058985710144 0.13464799523353577 -0.5946549773216248 -0.7865340113639832 0.16658399999141693
          -0.08700200170278549 -0.713450014591217 0.6952840089797974 -0.36730000376701355 -0.8164359927177429 0.44555899500846863
          0.18533000349998474 -0.45927199721336365 0.8687469959259033 0.2311290055513382 -0.21072299778461456 0.9498289823532104
          -0.646336019039154 -0.0763079971075058 0.759227991104126 -0.6741440296173096 -0.14581699669361115 0.724062979221344
          -0.5139859914779663 -0.09925000369548798 0.8520380258560181 0.006783000193536282 -0.17008499801158905 0.9854059815406799
          -0.17225399613380432 -0.10751699656248093 0.9791669845581055 -0.26621800661087036 -0.07930000126361847 0.9606450200080872
          -0.5641329884529114 -0.5412309765815735 0.6235560178756714 -0.5640050172805786 -0.7067819833755493 0.4270339906215668
          -0.5610460042953491 -0.4930320084095001 0.6649410128593445 -0.6153609752655029 -0.28097501397132874 0.7364670038223267
          -0.6295250058174133 -0.09056299924850464 0.7716839909553528 -0.6927139759063721 -0.15864500403404236 0.703548014163971
          0.4409349858760834 -0.2902120053768158 0.8493250012397766 0.5586959719657898 -0.2929219901561737 0.7759220004081726
          0.49238499999046326 -0.2480269968509674 0.8342900276184082 0.4049459993839264 -0.20912599563598633 0.8901039958000183
          -0.37625399231910706 -0.9073650240898132 -0.18740999698638916 0.5139139890670776 -0.8546969890594482 -0.07338500022888184
          0.9497389793395996 -0.3124620020389557 -0.01905299909412861 -0.3571009933948517 -0.919284999370575 -0.16550900042057037
          -0.4006139934062958 -0.910207986831665 0.10501699894666672 -0.30955201387405396 -0.8773180246353149 0.3667289912700653
          -0.3932200074195862 -0.9131600260734558 -0.10731600224971771 -0.42171400785446167 -0.9066540002822876 0.011663000099360943
          -0.5546370148658752 -0.7966660261154175 0.24021099507808685 0.1624470055103302 -0.6306830048561096 0.7588480114936829
          -0.09117300063371658 -0.8056589961051941 0.5853220224380493 0.3605709969997406 -0.42326200008392334 0.8311669826507568
          0.26934799551963806 -0.1590220034122467 0.9498230218887329 -0.35148000717163086 -0.13877399265766144 0.9258530139923096
          -0.5798599720001221 -0.17688600718975067 0.7952820062637329 -0.32801198959350586 -0.09431199729442596 0.9399539828300476
          -0.7296550273895264 -0.1846420019865036 0.6584159731864929 -0.43304601311683655 -0.07529299706220627 0.898222029209137
          0.007745000068098307 -0.09487099945545197 0.9954590201377869 -0.2147810012102127 -0.06567099690437317 0.974452018737793
          -0.43415799736976624 -0.05424400046467781 0.8992019891738892 0.7026100158691406 -0.053821999579668045 0.7095370292663574
          0.7645919919013977 -0.026864999905228615 0.6439549922943115 -0.4898799955844879 -0.47159600257873535 0.7332220077514648
          -0.5004609823226929 -0.598583996295929 0.6254879832267761 -0.5364130139350891 -0.7196679711341858 0.4408389925956726
          -0.5062410235404968 -0.8418369889259338 0.18716399371623993 -0.605139970779419 -0.1505340039730072 0.7817580103874207
          -0.7533779740333557 -0.33270400762557983 0.5672119855880737 -0.7670940160751343 -0.12801900506019592 0.6286309957504272
          -0.6593250036239624 -0.10777399688959122 0.7440930008888245 -0.5648429989814758 -0.47658801078796387 0.6736590266227722
          -0.6487339735031128 -0.13626599311828613 0.7487159967422485 -0.7132369875907898 -0.1496099978685379 0.6847699880599976
          0.5097460150718689 -0.3945559859275818 0.7645159959793091 0.5687100291252136 -0.5251169800758362 0.6331049799919128
          0.690792977809906 -0.38914400339126587 0.6094030141830444 0.7518180012702942 -0.3564769923686981 0.5547019839286804
          0.6343470215797424 -0.28129899501800537 0.7200520038604736 0.7167490124702454 -0.47884100675582886 0.5069329738616943
          0.6972360014915466 -0.5106750130653381 0.5030630230903625 0.6311780214309692 -0.2186959981918335 0.7441679835319519
          0.46319299936294556 -0.24099600315093994 0.8528620004653931 0.5063989758491516 -0.20675499737262726 0.8371449708938599
          0.49901100993156433 -0.23233699798583984 0.8348699808120728 0.40385499596595764 -0.22519400715827942 0.8866729736328125
          0.14333400130271912 -0.11906299740076065 0.9824860095977783 0.2842879891395569 -0.17584800720214844 0.9424740076065063
          -0.15466800332069397 -0.9811919927597046 0.1155019998550415 -0.3576200008392334 -0.8524879813194275 -0.38127601146698
          -0.23826299607753754 -0.8459680080413818 -0.47704100608825684 -0.01600000075995922 -0.922078013420105 -0.3866739869117737
          0.0008559999987483025 -0.9866660237312317 -0.16275499761104584 0.755141019821167 -0.6426609754562378 -0.12941500544548035
          -0.15421700477600098 -0.9711959958076477 -0.18164800107479095 -0.4593159854412079 -0.8655170202255249 -0.19977399706840515
          -0.21108999848365784 -0.8946570158004761 0.3937380015850067 -0.26895400881767273 -0.909965991973877 -0.31563600897789
          -0.2718760073184967 -0.9459900259971619 -0.176596000790596 0.07006499916315079 -0.8400170207023621 0.538017988204956
          0.3360289931297302 -0.5728060007095337 0.7476480007171631 -0.36634498834609985 -0.12220499664545059 0.922419011592865
          0.9699119925498962 -0.009235000237822533 0.24328100681304932 0.770645022392273 -0.09069900214672089 0.6307770013809204
          -0.6974539756774902 -0.1836239993572235 0.692704975605011 -0.5882769823074341 -0.15894100069999695 0.7928860187530518
          -0.4333780109882355 -0.16037899255752563 0.8868269920349121 -0.8323299884796143 -0.0890519991517067 0.5470790266990662
          -0.7745040059089661 -0.1345990002155304 0.6180830001831055 -0.4133400022983551 -0.06750400364398956 0.908070981502533
          -0.25570499897003174 -0.0676570013165474 0.9643840193748474 -0.04711899906396866 -0.02963699959218502 0.9984490275382996
          0.036396000534296036 -0.040063999593257904 0.9985340237617493 -0.12910600006580353 -0.09092199802398682 0.9874539971351624
          -0.6814540028572083 -0.5286849737167358 0.5060759782791138 -0.6091279983520508 -0.764968991279602 0.20925100147724152
          -0.6910099983215332 -0.6684629917144775 0.2750680148601532 -0.6433320045471191 -0.6119279861450195 0.46007299423217773
          -0.4453740119934082 -0.8950409889221191 0.023319000378251076 -0.6007270216941833 -0.793624997138977 0.09636499732732773
          -0.681876003742218 -0.10285499691963196 0.7242000102996826 -0.9048280119895935 -0.18273000419139862 0.3845730125904083
          -0.8864610195159912 -0.3103120028972626 0.34335699677467346 -0.7027379870414734 -0.04897499829530716 0.7097610235214233
          -0.8765270113945007 -0.08697199821472168 0.47343000769615173 -0.7542539834976196 -0.06466399878263474 0.6533910036087036
          0.4015139937400818 -0.7057039737701416 0.5837540030479431 0.609254002571106 -0.6306790113449097 0.48068100214004517
          0.4921810030937195 -0.8218470215797424 0.28692299127578735 0.5474569797515869 -0.7415239810943604 0.38785600662231445
          0.5476530194282532 -0.6583690047264099 0.5163580179214478 0.8313530087471008 -0.2693629860877991 0.48610401153564453
          0.8899229764938354 -0.3853130042552948 0.24406999349594116 0.905788004398346 -0.31979799270629883 0.277987003326416
          0.8136169910430908 -0.46311700344085693 0.35149699449539185 0.5960559844970703 -0.24945500493049622 0.7632099986076355
          0.8521209955215454 -0.2553409934043884 0.4568270146846771 0.7426689863204956 -0.2903769910335541 0.603426992893219
          0.672523021697998 -0.6878079771995544 0.27319198846817017 0.6505900025367737 -0.685267984867096 0.32732298970222473
          0.7441930174827576 -0.6455410122871399 0.17162099480628967 0.5964419841766357 -0.184920996427536 0.781063973903656
          0.9248070120811462 -0.08158300071954727 0.37158700823783875 0.8394420146942139 -0.13784700632095337 0.5256760120391846
          0.5389220118522644 -0.195809006690979 0.8192809820175171 0.4790639877319336 -0.2134390026330948 0.8514350056648254
          0.572700023651123 -0.13260799646377563 0.8089680075645447 0.7001579999923706 -0.09857899695634842 0.7071499824523926
          0.4729439914226532 -0.20361599326133728 0.857243001461029 0.2362779974937439 -0.051568999886512756 0.9703159928321838
          0.3543649911880493 -0.14632299542427063 0.9235879778862 0.15071499347686768 -0.9687259793281555 0.1971150040626526
          -0.23216299712657928 -0.7599350214004517 -0.6071239709854126 -0.05377599969506264 -0.7603440284729004 -0.6472899913787842
          0.33051401376724243 -0.9276000261306763 -0.17412300407886505 0.17678700387477875 -0.9128249883651733 -0.36809998750686646
          0.17018699645996094 -0.8187639713287354 -0.5483260154724121 0.27232399582862854 -0.9621670246124268 0.008592000231146812
          -0.12532900273799896 -0.7959510087966919 -0.5922449827194214 -0.06545300036668777 -0.8892340064048767 -0.4527460038661957
          -0.35562199354171753 -0.8828279972076416 -0.30683401226997375 -0.2490140050649643 -0.914031982421875 -0.32021400332450867
          -0.5356460213661194 -0.8307290077209473 -0.15156599879264832 0.011602000333368778 -0.9236440062522888 -0.3830749988555908
          -0.13631099462509155 -0.14310799539089203 0.9802749752998352 -0.7234780192375183 -0.18671199679374695 0.6646190285682678
          -0.788437008857727 -0.16433300077915192 0.5927579998970032 -0.4486140012741089 -0.18519100546836853 0.8743280172348022
          -0.8888909816741943 -0.07917600125074387 0.45122501254081726 -0.8999289870262146 0.011850000359117985 0.4358769953250885
          -0.9694290161132812 0.05803599953651428 0.23840899765491486 0.11855500191450119 -0.011692999862134457 0.9928789734840393
          0.12313000112771988 -0.07250399887561798 0.9897379875183105 -0.8185979723930359 -0.5059840083122253 0.271806001663208
          -0.7679160237312317 -0.6384570002555847 0.05174500122666359 -0.874405026435852 -0.47827601432800293 0.08166100084781647
          -0.6407660245895386 -0.7660279870033264 -0.051187001168727875 -0.9767810106277466 -0.20016799867153168 0.07636400312185287
          -0.966346025466919 -0.1150289997458458 0.23009300231933594 -0.936489999294281 -0.3260650038719177 0.12910300493240356
          -0.982250988483429 -0.12320099771022797 0.14143399894237518 -0.9100710153579712 -0.05963300168514252 0.4101389944553375
          -0.8433619737625122 -0.02440200001001358 0.5367910265922546 0.418179988861084 -0.8422489762306213 0.3402090072631836
          0.5073729753494263 -0.8393809795379639 0.19496500492095947 0.5137330293655396 -0.8471329808235168 0.1358090043067932
          0.4336549937725067 -0.9010779857635498 -0.0014039999805390835 0.517087996006012 -0.8370739817619324 0.17868399620056152
          0.9520090222358704 -0.22378499805927277 0.20880499482154846 0.9560179710388184 -0.28231799602508545 -0.07954099774360657
          0.8972970247268677 -0.4364590048789978 -0.06603699922561646 0.8620160222053528 -0.503184974193573 0.06110300123691559
          0.6998249888420105 -0.23400099575519562 0.6748989820480347 0.9332190155982971 -0.17097799479961395 0.31602001190185547
          0.9731490015983582 -0.14828799664974213 0.17604300379753113 0.5425500273704529 -0.8391709923744202 0.037845999002456665
          0.601203978061676 -0.7987380027770996 -0.02389799989759922 0.6931229829788208 -0.6986219882965088 -0.17750400304794312
          0.9228929877281189 -0.07253199815750122 0.37816300988197327 0.6218230128288269 -0.1626729965209961 0.7660769820213318
          0.6794480085372925 -0.08588100224733353 0.7286800146102905 0.5500410199165344 -0.10012099891901016 0.8291149735450745
          0.6688029766082764 0.027737999334931374 0.7429220080375671 0.717278003692627 0.014808000065386295 0.6966300010681152
          0.5345439910888672 -0.10904599726200104 0.8380759954452515 0.47530800104141235 -0.010812000371515751 0.8797529935836792
          0.4492340087890625 0.024748999625444412 0.8930709958076477 0.2793619930744171 -0.03269200026988983 0.9596289992332458
          0.061893001198768616 -0.6348519921302795 -0.7701510190963745 0.1074099987745285 -0.5692430138587952 -0.8151230216026306
          0.2018200010061264 -0.6891149878501892 -0.6959810256958008 0.38565298914909363 -0.9087859988212585 -0.1593099981546402
          0.3317759931087494 -0.8528199791908264 -0.40326499938964844 0.3781859874725342 -0.63372802734375 -0.6748070120811462
          -0.0092569999396801 -0.7416650056838989 -0.6707069873809814 -0.47394999861717224 -0.6651880145072937 -0.576973021030426
          -0.585843026638031 -0.72530198097229 -0.3615590035915375 -0.13394899666309357 -0.8266260027885437 -0.5465779900550842
          -0.07525099813938141 -0.939411997795105 -0.33442699909210205 -0.7768300175666809 -0.5988010168075562 -0.19486500322818756
          -0.7467280030250549 -0.6103320121765137 -0.2643730044364929 0.18346500396728516 -0.8937150239944458 -0.40940698981285095
          0.3245159983634949 -0.7631400227546692 -0.5588439702987671 -0.3071640133857727 -0.17069700360298157 0.9362220168113708
          -0.04743200168013573 -0.14561699330806732 0.9882029891014099 -0.32069700956344604 -0.14575199782848358 0.9358999729156494
          0.21937300264835358 -0.14135900139808655 0.9653459787368774 0.10003100335597992 -0.15913599729537964 0.9821760058403015
          -0.5226320028305054 -0.17048799991607666 0.8353379964828491 -0.589389979839325 -0.17817899584770203 0.7879539728164673
          -0.7218620181083679 -0.18044400215148926 0.6680989861488342 -0.8587430119514465 -0.13210000097751617 0.4950850009918213
          -0.881987988948822 -0.1480170041322708 0.4474250078201294 -0.8461970090866089 -0.16896699368953705 0.5053719878196716
          -0.9780769944190979 -0.051562998443841934 0.20176100730895996 -0.9126420021057129 0.03486499935388565 0.40727099776268005
          -0.985988974571228 0.04635399952530861 0.16023699939250946 -0.9919620156288147 0.09915000200271606 -0.07862000167369843
          -0.9931579828262329 0.05501899868249893 -0.10300800204277039 0.4657000005245209 -0.06500200182199478 0.8825520277023315
          -0.8054810166358948 -0.5811390280723572 -0.11609300225973129 -0.907122015953064 -0.4069870114326477 -0.10719999670982361
          -0.9592710137367249 -0.2804349958896637 -0.03397500142455101 -0.9498680233955383 -0.14778700470924377 -0.27551698684692383
          -0.9769489765167236 -0.1326110064983368 -0.16728800535202026 -0.99959397315979 -0.008330999873578548 0.027255000546574593
          -0.9750810265541077 -0.05290000140666962 -0.21545200049877167 -0.9543349742889404 -0.10978399962186813 0.27783599495887756
          -0.9773079752922058 -0.006603000219911337 0.21172000467777252 0.4215179979801178 -0.886838972568512 -0.18931199610233307
          0.9933909773826599 -0.1101280003786087 -0.03235099837183952 0.8490830063819885 -0.28033900260925293 -0.4477370083332062
          0.9447150230407715 -0.15366700291633606 -0.28965499997138977 0.8404260277748108 -0.41474100947380066 -0.34881699085235596
          0.7769500017166138 -0.5279979705810547 -0.3428800106048584 0.8201839923858643 -0.10063699632883072 0.5631780028343201
          0.9988840222358704 -0.028927000239491463 -0.03734099864959717 0.9855809807777405 0.006446999963372946 0.1690790057182312
          0.554593026638031 -0.7962210178375244 -0.2417829930782318 0.5709900259971619 -0.6467909812927246 -0.5055999755859375
          0.7174919843673706 0.03366699814796448 0.6957529783248901 0.7133880257606506 0.07779999822378159 0.6964370012283325
          0.5918949842453003 0.021669000387191772 0.8057230114936829 0.8250409960746765 0.2032099962234497 0.5272679924964905
          0.7865639925003052 0.18532699346542358 0.5890420079231262 0.7701680064201355 0.22485199570655823 0.5968940258026123
          0.8291370272636414 0.17247000336647034 0.5317749977111816 0.6807839870452881 0.14299200475215912 0.718392014503479
          0.5503799915313721 0.03664100170135498 0.8341100215911865 0.2051219940185547 -0.567188024520874 -0.797635018825531
          0.9478750228881836 -0.17150799930095673 -0.26854899525642395 0.8342679738998413 -0.2757830023765564 -0.47742998600006104
          0.3283439874649048 -0.4216980040073395 -0.8451989889144897 0.25140100717544556 -0.4791969954967499 -0.8409320116043091
          0.2746419906616211 -0.5854259729385376 -0.7627900242805481 0.4662739932537079 -0.7586640119552612 -0.45499199628829956
          0.5838890075683594 -0.4804289937019348 -0.6544169783592224 0.4129430055618286 -0.47617700695991516 -0.7763590216636658
          0.17738699913024902 -0.6035990118980408 -0.7773039937019348 0.020173000171780586 -0.5447369813919067 -0.8383640050888062
          -0.4416230022907257 -0.5627239942550659 -0.6987929940223694 -0.24857400357723236 -0.7188540101051331 -0.6491990089416504
          -0.7024400234222412 -0.498324990272522 -0.5081830024719238 -0.6322460174560547 -0.4495829939842224 -0.6309840083122253
          -0.6825699806213379 -0.3840790092945099 -0.6217560172080994 0.2483700066804886 -0.7850559949874878 -0.5674499869346619
          0.1384669989347458 -0.8716279864311218 -0.4702039957046509 0.18735800683498383 -0.6946179866790771 -0.694553017616272
          -0.8863000273704529 -0.3519029915332794 -0.3010610044002533 -0.818926990032196 -0.4509649872779846 -0.3549489974975586
          0.49523499608039856 -0.6379709839820862 -0.5896909832954407 0.5173069834709167 -0.6280419826507568 -0.5813400149345398
          0.37377700209617615 -0.6199079751968384 -0.6899309754371643 -0.2174520045518875 -0.1377680003643036 0.9662989974021912
          0.18355000019073486 -0.11368799954652786 0.9764140248298645 -0.030167000368237495 -0.11757899820804596 0.9926049709320068
          -0.3958140015602112 -0.15131700038909912 0.9057779908180237 -0.6303520202636719 -0.16090799868106842 0.7594500184059143
          0.5011069774627686 -0.1380780041217804 0.854299008846283 0.2995609939098358 -0.13473300635814667 0.9445160031318665
          -0.812703013420105 -0.12335199862718582 0.5694720149040222 -0.9478830099105835 -0.08057300001382828 0.3082619905471802
          -0.9233319759368896 -0.12658299505710602 0.36254000663757324 -0.8998420238494873 -0.09246200323104858 0.42630499601364136
          -0.9361249804496765 -0.07205399870872498 0.3442069888114929 -0.9970909953117371 -0.034481000155210495 0.06797699630260468
          -0.9900060296058655 0.01883300021290779 0.1397639960050583 -0.9995189905166626 -0.02068299986422062 0.023104999214410782
          -0.9913470149040222 0.039684001356363297 -0.12512700259685516 -0.9831699728965759 -0.06278599798679352 0.17156200110912323
          -0.9856690168380737 0.028395000845193863 -0.1662829965353012 -0.9787420034408569 0.04759199917316437 -0.1994979977607727
          -0.9602069854736328 0.07743299752473831 -0.268341988325119 -0.9402160048484802 0.10168000310659409 -0.32504600286483765
          -0.9681770205497742 0.07981400191783905 -0.23719799518585205 -0.9236570000648499 0.07917100191116333 -0.3749539852142334
          0.7387620210647583 0.08979800343513489 0.6679570078849792 0.7788329720497131 -0.007234000135213137 0.6271899938583374
          -0.8190950155258179 -0.25380799174308777 -0.5144559741020203 -0.9122049808502197 -0.04030200093984604 -0.4077470004558563
          -0.8608710169792175 -0.13988299667835236 -0.48921799659729004 -0.9034759998321533 -0.008554000407457352 -0.4285529851913452
          -0.923160970211029 -0.01107999961823225 -0.38425400853157043 0.9397130012512207 -0.04037399962544441 -0.339572012424469
          0.9784089922904968 0.016320999711751938 -0.20603199303150177 0.7891610264778137 -0.1582379937171936 -0.5934529900550842
          0.7169219851493835 -0.3600020110607147 -0.5970100164413452 0.8732680082321167 0.15090300142765045 0.4632830023765564
          0.9867600202560425 0.08083400130271912 -0.14061099290847778 0.9497789740562439 0.1421249955892563 -0.27878400683403015
          0.9703090190887451 0.20520099997520447 0.12803800404071808 0.9849470257759094 0.12183500081300735 -0.12261900305747986
          0.8710179924964905 0.24386799335479736 0.4264470040798187 0.8358780145645142 0.32093700766563416 0.4453180134296417
          0.8664569854736328 0.4094969928264618 0.28559499979019165 0.8973600268363953 0.31645798683166504 0.3075700104236603
          0.8372949957847595 0.3910619914531708 0.38210898637771606 0.8883500099182129 0.35812199115753174 0.28737398982048035
          0.8237630128860474 0.1495009958744049 0.5468670129776001 0.729075014591217 -0.3513360023498535 -0.5873780250549316
          0.15654100477695465 -0.4302769899368286 -0.8890200257301331 0.2619599997997284 -0.35328400135040283 -0.8980910181999207
          0.5673059821128845 -0.41530299186706543 -0.7111160159111023 0.40483400225639343 -0.3050970137119293 -0.8619890213012695
          0.5930299758911133 -0.30525100231170654 -0.745074987411499 0.12580899894237518 -0.535614013671875 -0.8350390195846558
          0.35744500160217285 -0.5949289798736572 -0.7199249863624573 -0.0594870001077652 -0.604453980922699 -0.7944160103797913
          -0.5448009967803955 -0.43045398592948914 -0.7196530103683472 -0.14374899864196777 -0.5254089832305908 -0.8386189937591553
          -0.7442479729652405 -0.352726012468338 -0.5671679973602295 -0.7837740182876587 -0.29413700103759766 -0.5469759702682495
          0.45733800530433655 -0.6381440162658691 -0.6193659901618958 0.1964769959449768 -0.6514179706573486 -0.732837975025177
          0.6220859885215759 -0.48077499866485596 -0.6179530024528503 -0.20586200058460236 -0.11351700127124786 0.9719750285148621
          -0.4192590117454529 -0.13294099271297455 0.8980799913406372 -0.32719698548316956 -0.12879399955272675 0.9361379742622375
          0.24990199506282806 -0.09075699746608734 0.9640079736709595 0.39021000266075134 -0.11173299700021744 0.9139209985733032
          0.494488000869751 -0.14624400436878204 0.8567929863929749 0.08457999676465988 -0.09679300338029861 0.991703987121582
          -0.10933200269937515 -0.10805200040340424 0.9881150126457214 -0.5600219964981079 -0.12860000133514404 0.8184360265731812
          -0.7882480025291443 -0.13253700733184814 0.6009160280227661 -0.740917980670929 -0.11914099752902985 0.6609429717063904
          0.6954540014266968 -0.1213809996843338 0.7082440257072449 0.5752490162849426 -0.1539199948310852 0.8033660054206848
          -0.9083960056304932 -0.0731630027294159 0.41165998578071594 -0.8402169942855835 -0.09001900255680084 0.5347260236740112
          -0.9595699906349182 -0.04163400083780289 0.27837300300598145 -0.957984983921051 -0.037335000932216644 0.2843779921531677
          -0.988860011100769 0.047853998839855194 -0.14094899594783783 -0.9946780204772949 -0.04592299833893776 0.09223499894142151
          -0.9976829886436462 -0.0067170001566410065 -0.06769999861717224 -0.9579660296440125 -0.019588999450206757 -0.2862119972705841
          -0.8228350281715393 0.009995000436902046 -0.5681920051574707 -0.9902799725532532 -0.026600999757647514 0.13652299344539642
          -0.9208109974861145 0.03349699825048447 -0.3885670006275177 -0.8626729846000671 0.07361000031232834 -0.5003769993782043
          -0.8435760140419006 0.09742099791765213 -0.5281000137329102 -0.8089579939842224 0.04765300080180168 -0.5859320163726807
          0.8320310115814209 0.01593099907040596 0.5544999837875366 0.9520440101623535 0.1379760056734085 0.27308300137519836
          0.8467119932174683 -0.036375001072883606 0.5308060050010681 0.8981199860572815 0.15314699709415436 0.4122210144996643
          -0.8444039821624756 -0.039083998650312424 -0.5342789888381958 -0.8967429995536804 0.03415900096297264 -0.44123199582099915
          -0.8695300221443176 -0.15159399807453156 -0.4700390100479126 -0.9199429750442505 -0.02081199921667576 -0.39149901270866394
          0.77019202709198 -0.015425000339746475 -0.6376259922981262 0.8692700266838074 0.08924899995326996 -0.48621299862861633
          0.5566809773445129 -0.12254200130701065 -0.8216390013694763 0.9212329983711243 0.3137879967689514 0.22992800176143646
          0.9119679927825928 0.26039400696754456 -0.31703299283981323 0.8357660174369812 0.3096739947795868 -0.4534290134906769
          0.8324490189552307 0.1986909955739975 -0.5172529816627502 0.9460780024528503 0.2639960050582886 -0.187732994556427
          0.951583981513977 0.3047640025615692 0.040091000497341156 0.9350119829177856 0.350041002035141 0.05677200108766556
          0.8495039939880371 0.4953179955482483 0.18166600167751312 0.8470939993858337 0.5203319787979126 -0.10809999704360962
          0.8716220259666443 0.47672298550605774 0.11406199634075165 0.8375759720802307 0.5463110208511353 -0.0033450000919401646
          0.9163960218429565 0.3985539972782135 -0.03705500066280365 0.27564001083374023 -0.31493499875068665 -0.9082059860229492
          0.3904150128364563 -0.45306500792503357 -0.8014410138130188 0.2564220130443573 -0.1903579980134964 -0.9476349949836731
          0.3038719892501831 -0.18452399969100952 -0.934673011302948 -0.38503700494766235 -0.3958609998226166 -0.8336910009384155
          0.2825019955635071 -0.3411650061607361 -0.8965489864349365 -0.705469012260437 -0.34956100583076477 -0.6165390014648438
          -0.46022099256515503 -0.37225499749183655 -0.8059920072555542 0.07377500087022781 -0.4504539966583252 -0.8897470235824585
          0.3083440065383911 -0.5513759851455688 -0.7751830220222473 -0.1728300005197525 -0.34703001379966736 -0.9217919707298279
          0.16542500257492065 -0.6383879780769348 -0.7517279982566833 -0.8777809739112854 -0.15266799926757812 -0.45408400893211365
          0.37646201252937317 -0.6599419713020325 -0.650193989276886 0.568444013595581 -0.4756689965724945 -0.6712750196456909
          0.6974570155143738 -0.3755379915237427 -0.6103479862213135 0.7243499755859375 -0.2867240011692047 -0.6269810199737549
          -0.27866700291633606 -0.11664599925279617 0.9532780051231384 -0.4121769964694977 -0.11710099875926971 0.9035469889640808
          0.45074400305747986 -0.10762900114059448 0.8861410021781921 0.18310900032520294 -0.0830250009894371 0.9795799851417542
          0.27968600392341614 -0.0972139984369278 0.9551569819450378 0.6187630295753479 -0.16851699352264404 0.7672899961471558
          0.639627993106842 -0.161298006772995 0.751570999622345 0.07056999951601028 -0.10302100330591202 0.9921730160713196