<?xml version="1.0"?>
<VTKFile type="PolyData" version="0.1" byte_order="LittleEndian" header_type="UInt32" compressor="vtkZLibDataCompressor">
  <PolyData>
    <Piece NumberOfPoints="1914" NumberOfVerts="0" NumberOfLines="0" NumberOfStrips="0" NumberOfPolys="3824">
      <PointData Normals="Normals">
        <DataArray type="Float32" Name="Normals" NumberOfComponents="3" format="ascii" RangeMin="0.9999993230528631" RangeMax="1.0000008966663465">
          -0.01943100057542324 -0.10689300298690796 0.9940810203552246 -0.017167000100016594 -0.24201700091362 0.9701200127601624
          0.18050499260425568 -0.16249699890613556 0.970058023929596 0.07500399649143219 -0.03063100017607212 0.9967129826545715
          -0.2711940109729767 -0.1763170063495636 0.9462379813194275 -0.16402900218963623 -0.06549400091171265 0.9842789769172668
          0.40771999955177307 -0.26450398564338684 0.8739569783210754 -0.3970789909362793 -0.277444988489151 0.8748440146446228
          -0.20416000485420227 -0.34833401441574097 0.9148669838905334 0.1540910005569458 -0.31686198711395264 0.9358710050582886
          0.3487449884414673 -0.13901400566101074 0.9268509745597839 0.38911399245262146 -0.21386000514030457 0.8960220217704773
          -0.05351100116968155 0.055500999093055725 0.9970239996910095 0.33200401067733765 -0.05158799886703491 0.9418659806251526
          0.16048100590705872 0.036302000284194946 0.9863709807395935 -0.3988179862499237 -0.20093999803066254 0.8947439789772034
          -0.3732540011405945 -0.19737599790096283 0.9064900279045105 -0.15044499933719635 0.03291400149464607 0.988070011138916
          -0.3577769994735718 -0.1748259961605072 0.9172959923744202 0.6295940279960632 -0.27004000544548035 0.7284849882125854
          0.36190998554229736 -0.29721999168395996 0.8835620284080505 0.7872740030288696 -0.2954080104827881 0.5412330031394958
          0.6308659911155701 -0.31014901399612427 0.7112069725990295 -0.5276769995689392 -0.44003498554229736 0.7265849709510803
          -0.5205850005149841 -0.3445500135421753 0.7812020182609558 0.0592540018260479 -0.42580100893974304 0.9028750061988831
          -0.31012099981307983 -0.5176830291748047 0.7973889708518982 0.36127498745918274 -0.4498850107192993 0.816752016544342
          0.48790401220321655 -0.40372800827026367 0.773921012878418 0.6086789965629578 -0.14508099853992462 0.7800400257110596
          -0.09714200347661972 0.1469240039587021 0.9843659996986389 -0.003068000078201294 0.14340700209140778 0.9896590113639832
          0.3887459933757782 0.020625999197363853 0.9211140275001526 -0.38871198892593384 -0.17010900378227234 0.9055200219154358
          -0.41726699471473694 -0.29854100942611694 0.85834801197052 -0.31185999512672424 -0.15930399298667908 0.9366779923439026
          -0.28060099482536316 -0.15012800693511963 0.9480109810829163 -0.07524199783802032 0.056074999272823334 0.9955869913101196
          0.804286003112793 -0.2502639889717102 0.5389739871025085 0.8760579824447632 -0.3324449956417084 0.34929001331329346
          0.7808070182800293 -0.3442229926586151 0.5213930010795593 0.8748070001602173 -0.31056898832321167 0.371832013130188
          -0.4680820107460022 -0.5878080129623413 0.6598340272903442 -0.586126983165741 -0.5949609875679016 0.5499789714813232
          -0.44053199887275696 -0.6316969990730286 0.6378800272941589 -0.4660469889640808 -0.5439019799232483 0.6978330016136169
          0.26593899726867676 -0.6070060133934021 0.7488790154457092 -0.12222100049257278 -0.6290079951286316 0.7677310109138489
          0.6271290183067322 -0.44384199380874634 0.6400880217552185 0.7640089988708496 -0.21883100271224976 0.6069620251655579
          0.039333000779151917 0.17823900282382965 0.9832010269165039 -0.018007000908255577 0.1194010004401207 0.9926829934120178
          0.19165700674057007 0.11951199918985367 0.974157989025116 0.6369860172271729 -0.10659100115299225 0.7634710073471069
          0.5182530283927917 0.009523999877274036 0.8551740050315857 0.4407620131969452 0.10263100266456604 0.8917369842529297
          -0.08673799782991409 -0.2954840064048767 0.9514020085334778 -0.2524310052394867 -0.463252991437912 0.8495150208473206
          -0.04693099856376648 -0.2485329955816269 0.9674860239028931 0.00520800007507205 -0.026484999805688858 0.9996359944343567
          0.05685200169682503 0.16010700166225433 0.9854609966278076 -0.047589000314474106 0.11205500364303589 0.9925619959831238
          0.8291170001029968 -0.3669719994068146 0.42177700996398926 0.862496018409729 -0.4114150106906891 0.2946830093860626
          0.8638399839401245 -0.34439098834991455 0.3676620125770569 0.8472710251808167 -0.2764579951763153 0.4535439908504486
          -0.5744150280952454 -0.7483369708061218 0.3317210078239441 0.4704279899597168 -0.7250940203666687 0.5029270052909851
          0.950203001499176 -0.21808600425720215 0.22260500490665436 -0.4980820119380951 -0.7134559750556946 0.49284499883651733
          -0.3945469856262207 -0.7264649868011475 0.5626559853553772 -0.14663800597190857 -0.7095580101013184 0.6892200112342834
          -0.5335879921913147 -0.7437419891357422 0.4026559889316559 -0.47202199697494507 -0.7217180132865906 0.5062789916992188
          -0.3899810016155243 -0.561913013458252 0.7294989824295044 0.5024589896202087 -0.6050170063972473 0.6176490187644958
          0.17026400566101074 -0.6991540193557739 0.6944019794464111 0.7333099842071533 -0.4681369960308075 0.4930559992790222
          0.8013859987258911 -0.18220800161361694 0.5697199702262878 0.3571639955043793 0.09070900082588196 0.929627001285553
          0.09090500324964523 0.06393399834632874 0.9938049912452698 0.3871999979019165 0.1208840012550354 0.9140369892120361
          -0.10949400067329407 0.09666299819946289 0.9892759919166565 0.2854200005531311 0.11880599707365036 0.95100998878479
          0.6594409942626953 -0.035179998725652695 0.7509329915046692 0.49320799112319946 0.062428999692201614 0.8676679730415344
          0.2890009880065918 0.139165997505188 0.947160005569458 0.8561850190162659 0.0711750015616417 0.5117440223693848
          0.8831850290298462 0.07553999871015549 0.4629009962081909 0.054044999182224274 -0.2471729964017868 0.9674630165100098
          -0.051607999950647354 -0.37006399035453796 0.9275720119476318 -0.22602500021457672 -0.48357298970222473 0.8456180095672607
          -0.4004879891872406 -0.62323397397995 0.6717060208320618 0.06902500241994858 0.09613300114870071 0.9929720163345337
          -0.21745599806308746 -0.04089200124144554 0.9752129912376404 -0.1448339968919754 0.1605370044708252 0.9763460159301758
          0.013638000003993511 0.15177300572395325 0.9883210062980652 -0.040394000709056854 -0.23128199577331543 0.9720479846000671
          0.018640000373125076 0.12171600013971329 0.992389976978302 -0.07300800085067749 0.12611199915409088 0.989326000213623
          0.7998170256614685 -0.492453008890152 0.34319499135017395 0.7267730236053467 -0.6424270272254944 0.2430800050497055
          0.8246440291404724 -0.5540270209312439 0.11408799886703491 0.8373259902000427 -0.5460230112075806 0.02725899964570999
          0.8807290196418762 -0.4278540015220642 0.2031179964542389 0.7557849884033203 -0.653223991394043 0.04568399861454964
          0.7329869866371155 -0.677299976348877 0.06320499628782272 0.9088180065155029 -0.30167001485824585 0.28817498683929443
          0.8570780158042908 -0.3273400068283081 0.3978259861469269 0.8839089870452881 -0.3097139894962311 0.35040199756622314
          0.8720309734344482 -0.3316969871520996 0.35991600155830383 0.8409960269927979 -0.29152101278305054 0.45578598976135254
          0.7420259714126587 -0.10219600051641464 0.6625360250473022 0.803721010684967 -0.2033350020647049 0.5591840147972107
          -0.22716400027275085 -0.8717340230941772 0.4341390132904053 -0.6813989877700806 -0.7134299874305725 0.163442000746727
          -0.6600710153579712 -0.75102299451828 0.016475999727845192 -0.4564000070095062 -0.8890020251274109 -0.03708399832248688
          -0.30602601170539856 -0.9426270127296448 0.1334259957075119 0.7465050220489502 -0.5581340193748474 0.36223798990249634
          -0.3669680058956146 -0.8379529714584351 0.4039430022239685 -0.6334139704704285 -0.68293297290802 0.36385399103164673
          -0.06195899844169617 -0.7558689713478088 0.6517840027809143 -0.5854640007019043 -0.7925040125846863 0.17079100012779236
          -0.5008119940757751 -0.8176109790802002 0.2840780019760132 0.2459540069103241 -0.7859830260276794 0.5672199726104736
          0.6296049952507019 -0.606436014175415 0.4856249988079071 0.3393299877643585 0.05449200049042702 0.939087986946106
          0.9754949808120728 0.037794001400470734 0.21674899756908417 0.886040985584259 0.026221999898552895 0.4628649950027466
          -0.0632380023598671 0.08930899947881699 0.9939939975738525 0.0868770033121109 0.08346600085496902 0.9927160143852234
          0.2599790096282959 0.03788499906659126 0.9648709893226624 -0.23850899934768677 0.21354499459266663 0.9473710060119629
          -0.15862999856472015 0.15599599480628967 0.9749370217323303 0.30676698684692383 0.12060900032520294 0.9441120028495789
          0.45681899785995483 0.07308200001716614 0.8865519762039185 0.6355469822883606 0.044179998338222504 0.7707970142364502
          0.692766010761261 0.00760400015860796 0.7211220264434814 0.5350260138511658 0.08234299719333649 0.8408129811286926
          -0.2468080073595047 -0.252826988697052 0.9355019927024841 -0.4431169927120209 -0.5164340138435364 0.7327640056610107
          -0.437516987323761 -0.39518600702285767 0.8077170252799988 -0.2674019932746887 -0.3463839888572693 0.8991739749908447
          -0.4785819947719574 -0.7024409770965576 0.5268179774284363 -0.5191980004310608 -0.5527470111846924 0.6518470048904419
          -0.014872999861836433 0.16251300275325775 0.986594021320343 -0.4184589982032776 0.138933002948761 0.8975459933280945
          -0.4587070047855377 0.01002500019967556 0.8885310292243958 -0.028643999248743057 0.21931800246238708 0.9752330183982849
          -0.3192090094089508 0.22545500099658966 0.9204760193824768 -0.1062769964337349 0.2177090048789978 0.9702100157737732
          0.538785994052887 -0.7624660134315491 0.35826799273490906 0.631542980670929 -0.7638909816741943 0.13275699317455292
          0.37916499376296997 -0.918366014957428 0.11329899728298187 0.5027300119400024 -0.8543170094490051 0.13192500174045563
          0.6064140200614929 -0.7683659791946411 0.20463599264621735 0.8647480010986328 -0.49302801489830017 -0.09557200223207474
          0.7196230292320251 -0.635316014289856 -0.2802090048789978 0.7668529748916626 -0.5764809846878052 -0.28214600682258606
          0.7225549817085266 -0.6782969832420349 -0.13352100551128387 0.890995979309082 -0.37913399934768677 0.249767005443573
          0.8625149726867676 -0.4881190061569214 -0.13344800472259521 0.8768479824066162 -0.4779660105705261 0.05182899907231331
          0.5246580243110657 -0.8501399755477905 -0.04466800019145012 0.5461480021476746 -0.8376489877700806 0.008151000365614891
          0.5153650045394897 -0.8388789892196655 -0.1751590073108673 0.9163399934768677 -0.3160640001296997 0.2458139955997467
          0.9844719767570496 -0.12163399904966354 0.12656700611114502 0.9642419815063477 -0.19273999333381653 0.18190300464630127
          0.8970890045166016 -0.31083500385284424 0.31402701139450073 0.8728449940681458 -0.3064889907836914 0.3797450065612793
          0.9266899824142456 -0.2624480128288269 0.2690120041370392 0.9560440182685852 -0.20901699364185333 0.2056480050086975
          0.8744059801101685 -0.2949010133743286 0.3852890133857727 0.8132269978523254 -0.06885500252246857 0.5778589844703674
          0.8465690016746521 -0.19893600046634674 0.49370598793029785 0.04702899977564812 -0.9530119895935059 0.2992610037326813
          -0.7265440225601196 -0.6790549755096436 -0.1049719974398613 -0.6271799802780151 -0.738867998123169 -0.24641300737857819
          -0.06823799759149551 -0.9929479956626892 -0.09694100171327591 -0.30528199672698975 -0.9408890008926392 -0.14673399925231934
          -0.41309401392936707 -0.860135018825531 -0.29919999837875366 0.007191000040620565 -0.9965540170669556 0.08263000100851059
          -0.6477839946746826 -0.7465450167655945 -0.15181000530719757 -0.5296319723129272 -0.8458880186080933 -0.06295499950647354
          -0.6356480121612549 -0.7385960221290588 0.2245599925518036 -0.5753329992294312 -0.8029029965400696 0.1560090035200119
          -0.6480510234832764 -0.6227650046348572 0.438400000333786 -0.4347890019416809 -0.8990640044212341 -0.05141599848866463
          0.5372869968414307 -0.03552300110459328 0.8426510095596313 -0.10127100348472595 0.09315399825572968 0.9904879927635193
          -0.1914609968662262 0.13104799389839172 0.972711980342865 0.2356960028409958 0.01860100030899048 0.9716489911079407
          -0.34150901436805725 0.23556099832057953 0.9098809957504272 -0.3416900038719177 0.32428398728370667 0.8820930123329163
          -0.5151100158691406 0.37889501452445984 0.7688300013542175 0.7529060244560242 0.007801999803632498 0.6580820083618164
          0.741907000541687 -0.05130400136113167 0.6685370206832886 -0.49790799617767334 -0.2008499950170517 0.8436509966850281
          -0.6370530128479004 -0.354995995759964 0.6842089891433716 -0.6604949831962585 -0.16764099895954132 0.731876015663147
          -0.6418439745903015 -0.5222169756889343 0.5615389943122864 -0.681298017501831 0.12782500684261322 0.7207599878311157
          -0.552918016910553 0.213809996843338 0.8053359985351562 -0.6421840190887451 -0.0011289999820291996 0.7665489912033081
          -0.6258370280265808 0.20603899657726288 0.7522469758987427 -0.38030698895454407 0.25840601325035095 0.888027012348175
          -0.2406489998102188 0.27772000432014465 0.9300320148468018 0.3588620126247406 -0.9108530282974243 0.20387500524520874
          0.3244599997997284 -0.9450380206108093 0.040369998663663864 0.2875489890575409 -0.9577540159225464 -0.00482300017029047
          0.1272139996290207 -0.9910029768943787 -0.04159099981188774 0.3209860026836395 -0.9468349814414978 0.021694999188184738
          0.772022008895874 -0.5044800043106079 -0.38662898540496826 0.5682880282402039 -0.5776330232620239 -0.5859940052032471
          0.5050439834594727 -0.7038499712944031 -0.4995250105857849 0.5526559948921204 -0.7483069896697998 -0.36688899993896484
          0.9067280292510986 -0.40532100200653076 0.1164420023560524 0.8417059779167175 -0.4424059987068176 -0.30952998995780945
          0.7799550294876099 -0.4417780041694641 -0.4432860016822815 0.2433210015296936 -0.9650740027427673 -0.0970890000462532
          0.2512879967689514 -0.9491699934005737 -0.18955400586128235 0.23266999423503876 -0.8926839828491211 -0.3859800100326538
          0.9850950241088867 -0.11151599884033203 0.13096700608730316 0.9266160130500793 -0.30902600288391113 0.21421000361442566
          0.9546390175819397 -0.18876299262046814 0.23028899729251862 0.9307129979133606 -0.22329400479793549 0.28967800736427307
          0.9822199940681458 -0.14534099400043488 0.11882899701595306 0.9827389717102051 -0.17573599517345428 0.05779600143432617
          0.9240549802780151 -0.2262440025806427 0.30811700224876404 0.9297239780426025 -0.11202000081539154 0.35080501437187195
          0.9273369908332825 -0.0692949965596199 0.36775699257850647 0.8403519988059998 -0.06543000042438507 0.5380769968032837
          -0.6197400093078613 -0.6824390292167664 -0.3875559866428375 -0.5882009863853455 -0.6192860007286072 -0.520101010799408
          -0.4645630121231079 -0.7561100125312805 -0.4609549939632416 -0.01539899967610836 -0.991981029510498 -0.12544700503349304
          -0.20718799531459808 -0.9357690215110779 -0.28532299399375916 -0.3140909969806671 -0.7589809894561768 -0.5703459978103638
          -0.6077039837837219 -0.7367749810218811 -0.2964079976081848 -0.8587830066680908 -0.5104029774665833 0.04449699819087982
          -0.804535984992981 -0.5191609859466553 0.2884339988231659 -0.629252016544342 -0.7700639963150024 -0.10508900135755539
          -0.466713011264801 -0.8833659887313843 0.04292900115251541 -0.8022480010986328 -0.32864299416542053 0.49838998913764954
          -0.830132007598877 -0.3531149923801422 0.4314979910850525 -0.32465100288391113 -0.9272879958152771 -0.18638500571250916
          -0.29958799481391907 -0.8575069904327393 -0.41824400424957275 0.38072898983955383 -0.009432000108063221 0.9246389865875244
          0.6052960157394409 -0.06593099981546402 0.7932649850845337 0.3759540021419525 0.01842300035059452 0.926455020904541
          0.7799980044364929 -0.14861899614334106 0.6078780293464661 0.7031530141830444 -0.1262499988079071 0.699741005897522
          0.1597680002450943 0.05395999923348427 0.9856789708137512 0.07887499779462814 0.0653500035405159 0.9947400093078613
          -0.09651599824428558 0.0986659973859787 0.9904289841651917 -0.30104300379753113 0.17834199965000153 0.9367859959602356
          -0.3528589904308319 0.16807200014591217 0.9204580187797546 -0.29247599840164185 0.1400739997625351 0.9459580183029175
          -0.5678079724311829 0.2759059965610504 0.7755450010299683 -0.36571601033210754 0.34853100776672363 0.8630049824714661
          -0.582027018070221 0.36866098642349243 0.7247989773750305 -0.7372419834136963 0.4068320095539093 0.5394089818000793
          -0.7633429765701294 0.3640710115432739 0.5336290001869202 0.9139919877052307 -0.16003400087356567 0.37283700704574585
          -0.7658519744873047 -0.2983799874782562 0.5695970058441162 -0.7972149848937988 -0.10053099691867828 0.5952669978141785
          -0.7594670057296753 0.039987001568078995 0.6493160128593445 -0.8896399736404419 0.14858900010585785 0.43181300163269043
          -0.8327280282974243 0.17781400680541992 0.52435302734375 -0.6924759745597839 0.31366199254989624 0.6496869921684265
          -0.8480160236358643 0.24978800117969513 0.467413991689682 -0.5111510157585144 0.21750299632549286 0.8315150141716003
          -0.551609992980957 0.31872299313545227 0.7708060145378113 -0.005541000049561262 -0.9844120144844055 -0.1757880002260208
          0.6609770059585571 -0.42402100563049316 -0.6191250085830688 0.24379099905490875 -0.562578022480011 -0.78998202085495
          0.44375699758529663 -0.4643099904060364 -0.7664830088615417 0.2777700126171112 -0.6812670230865479 -0.6772879958152771
          0.21429799497127533 -0.7676489949226379 -0.6039789915084839 0.9425650238990784 -0.3254519999027252 -0.07518599927425385
          0.6776869893074036 -0.3492389917373657 -0.6471260190010071 0.8148900270462036 -0.2997330129146576 -0.4961000084877014
          0.07133200019598007 -0.9443479776382446 -0.3211210072040558 -0.06554699689149857 -0.8233280181884766 -0.5637680292129517
          0.9860569834709167 -0.15805499255657196 0.05205800011754036 0.9923999905586243 -0.11492399871349335 0.04397900030016899
          0.9688869714736938 -0.12288500368595123 0.2148430049419403 0.9822800159454346 -0.04179900139570236 -0.18269799649715424
          0.9931780099868774 -0.04274599999189377 -0.10848800092935562 0.9947029948234558 0.0001939999929163605 -0.10279499739408493
          0.9821019768714905 -0.07192900031805038 -0.1740719974040985 0.997098982334137 -0.04159199818968773 0.06375399976968765
          0.9615640044212341 -0.0938899964094162 0.2580310106277466 -0.5255709886550903 -0.6873520016670227 -0.5013200044631958
          0.9546489715576172 -0.2272299975156784 -0.19238300621509552 0.7465919852256775 -0.475585013628006 -0.4652079939842224
          -0.4281820058822632 -0.5730860233306885 -0.6987370252609253 -0.4854939877986908 -0.5817890167236328 -0.6525470018386841
          -0.4374150037765503 -0.6851590275764465 -0.5824300050735474 -0.12796300649642944 -0.8927329778671265 -0.4320339858531952
          -0.12376800179481506 -0.6786829829216003 -0.7239279747009277 -0.32668599486351013 -0.6269320249557495 -0.7072719931602478
          -0.5198289752006531 -0.6719949841499329 -0.527446985244751 -0.6608210206031799 -0.5696489810943604 -0.48868700861930847
          -0.8977760076522827 -0.4308229982852936 -0.0915910005569458 -0.7583979964256287 -0.6374009847640991 -0.1362060010433197
          -0.9411759972572327 -0.2754310071468353 0.19577200710773468 -0.9646559953689575 -0.25896701216697693 0.04874299839138985
          -0.9810960292816162 -0.18032300472259521 0.0702420026063919 -0.36375200748443604 -0.8543840050697327 -0.3710950016975403
          -0.3933210074901581 -0.8954480290412903 -0.2084980010986328 -0.47499001026153564 -0.7565950155258179 -0.4493870139122009
          -0.9025059938430786 -0.06629099696874619 0.42554399371147156 -0.9108110070228577 -0.18445900082588196 0.3693220019340515
          -0.17436100542545319 -0.795648992061615 -0.5801219940185547 -0.1510470062494278 -0.7927849888801575 -0.5904889702796936
          -0.32461801171302795 -0.7453250288963318 -0.5823349952697754 0.47143301367759705 -0.005324999801814556 0.8818860054016113
          0.7675229907035828 -0.11036600172519684 0.6314489841461182 0.6261129975318909 -0.04468800127506256 0.7784510254859924
          0.30120599269866943 0.0354590006172657 0.9528999924659729 0.034026000648736954 0.09309700131416321 0.9950760006904602
          0.9054710268974304 -0.24205799400806427 0.3486129939556122 0.824088990688324 -0.16920100152492523 0.5406000018119812
          -0.2163030058145523 0.1761389970779419 0.9603059887886047 -0.48017099499702454 0.24493199586868286 0.8422849774360657
          -0.4353039860725403 0.19670400023460388 0.8785319924354553 -0.3688809871673584 0.2250490039587021 0.9018200039863586
          -0.44591501355171204 0.2512499988079071 0.8590890169143677 -0.6683589816093445 0.2904239892959595 0.6848000288009644
          -0.6040930151939392 0.3427009880542755 0.7194640040397644 -0.6976869702339172 0.3017599880695343 0.6497489809989929
          -0.7800269722938538 0.3477489948272705 0.5202199816703796 -0.5941069722175598 0.26523199677467346 0.7594000101089478
          -0.8060770034790039 0.33285900950431824 0.489329993724823 -0.8198369741439819 0.34692901372909546 0.45552998781204224
          -0.8472599983215332 0.36525699496269226 0.38566601276397705 -0.8665840029716492 0.37852099537849426 0.3251979947090149
          -0.8313339948654175 0.37186598777770996 0.4130359888076782 -0.8930569887161255 0.34905898571014404 0.28391599655151367
          0.9935280084609985 -0.11351300030946732 0.004058999940752983 0.9750900268554688 -0.22023600339889526 -0.026353999972343445
          -0.979449987411499 -0.007207000162452459 0.20155799388885498 -0.9308549761772156 0.23060199618339539 0.28342899680137634
          -0.9693549871444702 0.1151999980211258 0.2169799953699112 -0.9323920011520386 0.25662899017333984 0.25453099608421326
          -0.9169560074806213 0.263060986995697 0.29998400807380676 0.4291499853134155 -0.3584060072898865 -0.8290809988975525
          0.5582219958305359 -0.3096489906311035 -0.7697439789772034 0.1271519958972931 -0.4362249970436096 -0.8908089995384216
          0.03337400034070015 -0.6041470170021057 -0.7961729764938354 0.9628400206565857 -0.11033300310373306 -0.24650700390338898
          0.6212199926376343 -0.2474370002746582 -0.7435460090637207 0.5138450264930725 -0.18568499386310577 -0.8375459909439087
          0.8158569931983948 -0.10922899842262268 -0.5678439736366272 0.6401680111885071 -0.20714600384235382 -0.7397800087928772
          0.9551830291748047 -0.02357099950313568 -0.295074999332428 0.9580640196800232 0.06143900007009506 -0.27988898754119873
          0.8894209861755371 0.12610800564289093 -0.4393489956855774 0.9076650142669678 0.029526999220252037 -0.41865599155426025
          0.9303140044212341 0.12362299859523773 -0.3453010022640228 0.8958640098571777 0.07070700079202652 -0.4386669993400574
          0.984250009059906 -0.09292799979448318 -0.1503870040178299 0.4301759898662567 -0.6491519808769226 -0.6273360252380371
          -0.5755689740180969 -0.5079219937324524 -0.6408870220184326 -0.49153199791908264 -0.46939998865127563 -0.7335259914398193
          -0.16091600060462952 -0.6150969862937927 -0.7718560099601746 -0.3562290072441101 -0.46750199794769287 -0.809037983417511
          -0.14368300139904022 -0.5211889743804932 -0.8412590026855469 -0.5819169878959656 -0.5945019721984863 -0.5549240112304688
          -0.3514710068702698 -0.7182040214538574 -0.6005420088768005 -0.6995760202407837 -0.5980859994888306 -0.3910079896450043
          -0.9587590098381042 -0.273826003074646 -0.07615700364112854 -0.7735049724578857 -0.49896499514579773 -0.39079999923706055
          -0.9816719889640808 -0.1280049979686737 0.1411920040845871 -0.9843869805335999 -0.05900700017809868 0.16583499312400818
          -0.2213200032711029 -0.7855499982833862 -0.5778650045394897 -0.4858019948005676 -0.7213280200958252 -0.4936409890651703
          -0.07207799702882767 -0.6892020106315613 -0.7209759950637817 0.4883109927177429 0.01422400027513504 0.8725540041923523
          0.28309500217437744 0.05995599925518036 0.9572160243988037 0.37498199939727783 0.03655700013041496 0.9263110160827637
          0.8107770085334778 -0.11063099652528763 0.5748059749603271 0.8723700046539307 -0.17831599712371826 0.45516300201416016
          0.900829017162323 -0.24756599962711334 0.3566780090332031 0.7109910249710083 -0.061817001551389694 0.7004789710044861
          0.5687980055809021 -0.010598000138998032 0.8224089741706848 0.13019900023937225 0.10452800244092941 0.9859619736671448
          -0.17946100234985352 0.16142800450325012 0.9704300165176392 -0.10275000333786011 0.1623699963092804 0.981365978717804
          0.9479789733886719 -0.2968659996986389 0.11492200195789337 0.9204620122909546 -0.28370898962020874 0.2688109874725342
          -0.38088300824165344 0.24520599842071533 0.8915169835090637 -0.2526150047779083 0.21449600160121918 0.9434919953346252
          -0.5006539821624756 0.2836959958076477 0.8178399801254272 -0.49489301443099976 0.28765401244163513 0.8199610114097595
          -0.7873430252075195 0.353738009929657 0.5049369931221008 -0.6525779962539673 0.28032100200653076 0.7039620280265808
          -0.7549049854278564 0.3091900050640106 0.5783770084381104 -0.8770440220832825 0.2717989981174469 0.3961299955844879
          -0.9658920168876648 0.240323007106781 0.09642700105905533 -0.6157360076904297 0.29969701170921326 0.7287330031394958
          -0.9093080163002014 0.3042359948158264 0.28390100598335266 -0.9356300234794617 0.3171350061893463 0.15498900413513184
          -0.9360740184783936 0.33195099234580994 0.1165039986371994 -0.9605469703674316 0.2704260051250458 0.06496000289916992
          0.9679989814758301 -0.22220399975776672 -0.11663299798965454 0.8875769972801208 -0.1586730033159256 -0.4324699938297272
          0.9522920250892639 -0.2750900089740753 -0.13215699791908264 0.9470279812812805 -0.1206590011715889 -0.29762399196624756
          -0.968034029006958 0.20280100405216217 0.14758600294589996 -0.9276720285415649 0.2941550016403198 0.229994997382164
          -0.9648659825325012 0.10769999772310257 0.23965699970722198 -0.9214869737625122 0.2524079978466034 0.29521599411964417
          0.11237099766731262 -0.2976379990577698 -0.9480419754981995 0.30596598982810974 -0.22178299725055695 -0.925849974155426
          -0.1848060041666031 -0.34114500880241394 -0.9216650128364563 0.8714489936828613 0.015193999744951725 -0.49024999141693115
          0.4847570061683655 -0.0638979971408844 -0.8723120093345642 0.3481679856777191 -0.0005469999741762877 -0.9374319911003113
          0.2804870009422302 -0.10829299688339233 -0.953728973865509 0.5968850255012512 -0.06390800327062607 -0.7997779846191406
          0.7627400159835815 -0.013969000428915024 -0.6465550065040588 0.7715110182762146 0.034890998154878616 -0.6352580189704895
          0.8242310285568237 0.2069139927625656 -0.5270959734916687 0.6315879821777344 0.21459700167179108 -0.7450140118598938
          0.7903550267219543 0.1780409961938858 -0.5862079858779907 0.700793981552124 0.2481050044298172 -0.6688290238380432
          0.7043099999427795 0.0815339982509613 -0.7051950097084045 -0.48111099004745483 -0.438075989484787 -0.7593560218811035
          -0.35495299100875854 -0.5993310213088989 -0.717503011226654 -0.4964750111103058 -0.3164040148258209 -0.8083329796791077
          -0.4528549909591675 -0.32538801431655884 -0.8300870060920715 -0.9156349897384644 -0.298691987991333 -0.2690660059452057
          -0.6113079786300659 -0.5218790173530579 -0.5949320197105408 -0.9869580268859863 -0.13997900485992432 0.07950200140476227
          -0.9773669838905334 -0.19837099313735962 -0.07350999861955643 -0.6387900114059448 -0.5005289912223816 -0.584309995174408
          -0.41506698727607727 -0.6644369959831238 -0.6214839816093445 -0.8148540258407593 -0.32558199763298035 -0.47959399223327637
          -0.5178940296173096 -0.7001029849052429 -0.49156999588012695 -0.9601839780807495 0.11064200103282928 0.2565250098705292
          -0.3038490116596222 -0.7821540236473083 -0.5439760088920593 -0.14520099759101868 -0.6701970100402832 -0.7278410196304321
          0.007627000100910664 -0.6133660078048706 -0.789762020111084 0.03298500180244446 -0.5389559864997864 -0.8416879773139954
          0.4234110116958618 0.03348900005221367 0.9053189754486084 0.29499998688697815 0.07291699945926666 0.9527109861373901
          0.8973249793052673 -0.19537200033664703 0.39577600359916687 0.775443971157074 -0.08101599663496017 0.6261969804763794
          0.8246769905090332 -0.12677499651908875 0.5512130260467529 0.9241250157356262 -0.31342899799346924 0.21853099763393402
          0.9296900033950806 -0.31429100036621094 0.19208599627017975 0.7001479864120483 -0.0631830021739006 0.711197018623352
          0.5143330097198486 -0.02057800069451332 0.8573439717292786 0.44081300497055054 0.0177839994430542 0.8974230289459229