<?xml version="1.0"?>
<VTKFile type="PolyData" version="0.1" byte_order="LittleEndian" header_type="UInt32" compressor="vtkZLibDataCompressor">
  <PolyData>
    <Piece NumberOfPoints="3280" NumberOfVerts="0" NumberOfLines="0" NumberOfStrips="0" NumberOfPolys="6556">
      <PointData Normals="Normals">
        <DataArray type="Float32" Name="Normals" NumberOfComponents="3" format="ascii" RangeMin="0.999999194947214" RangeMax="1.000000856572393">
          0.9694380164146423 0.1236950010061264 -0.2118690013885498 0.9598469734191895 0.1629990041255951 -0.22830699384212494
          0.9103760123252869 0.1458580046892166 -0.3872219920158386 0.8889619708061218 0.08909600228071213 -0.4492320120334625
          0.9898809790611267 0.1415559947490692 -0.009885000064969063 0.9521229863166809 0.0769829973578453 -0.295864999294281
          0.9862229824066162 0.11262399703264236 -0.12116099894046783 0.9724680185317993 0.16439799964427948 -0.1651660054922104
          0.8124859929084778 0.12172099947929382 -0.5701310038566589 0.7901279926300049 0.11728499829769135 -0.6016169786453247
          0.9011300206184387 0.14842000603675842 -0.407353013753891 0.8643479943275452 0.10177700221538544 -0.49248799681663513
          0.9263700246810913 0.06267300248146057 -0.3713630139827728 0.8345639705657959 0.08913300186395645 -0.5436540246009827
          0.7749660015106201 0.10664799809455872 -0.6229389905929565 0.9725040197372437 0.17098000645637512 0.1581210047006607
          0.9928799867630005 0.0938740000128746 0.07332400232553482 0.9000930190086365 0.15999700129032135 0.4052579998970032
          0.9793279767036438 0.09797099977731705 -0.17697300016880035 0.971297025680542 0.15812000632286072 -0.17770600318908691
          0.9683970212936401 0.18173499405384064 0.1708189994096756 0.981124997138977 0.18742400407791138 -0.04760200157761574
          0.7425400018692017 0.12393900007009506 -0.658236026763916 0.7745969891548157 0.12718400359153748 -0.6195350289344788
          0.7024099826812744 0.12007000297307968 -0.7015720009803772 0.6978489756584167 0.08761999756097794 -0.7108650207519531
          0.7893880009651184 0.11527000367641449 -0.6029760241508484 0.8592990040779114 0.12172000110149384 -0.4967789947986603
          0.6612139940261841 0.09997999668121338 -0.7435060143470764 0.641057014465332 0.08684299886226654 -0.7625640034675598
          0.9245319962501526 0.14908599853515625 -0.35073399543762207 0.8556640148162842 0.07627800107002258 -0.5118799805641174
          0.9375370144844055 0.06722000241279602 -0.34132999181747437 0.987392008304596 0.023523999378085136 -0.15653599798679352
          0.9556750059127808 0.0767659991979599 -0.2842380106449127 0.6791970133781433 0.08585699647665024 -0.7289170026779175
          0.8276330232620239 0.06972800195217133 -0.5569210052490234 0.7408009767532349 0.09074199944734573 -0.6655669808387756
          0.6746280193328857 0.09613700211048126 -0.7318710088729858 0.879833996295929 0.16491200029850006 0.4457550048828125
          0.889045000076294 0.11093199998140335 0.4441779851913452 0.9435470104217529 0.09671799838542938 0.3168039917945862
          0.9549819827079773 0.09823500365018845 0.27992698550224304 0.9950879812240601 0.06101899966597557 -0.07794900238513947
          0.9645749926567078 0.0765480026602745 0.25245898962020874 0.7787920236587524 0.10449299961328506 0.6185179948806763
          0.7129290103912354 0.14623799920082092 0.6858180165290833 0.975180983543396 0.1863040030002594 -0.11963500082492828
          0.9739300012588501 0.21800099313259125 0.06274600327014923 0.8208379745483398 0.16564799845218658 0.5466129779815674
          0.8840219974517822 0.22411899268627167 0.41021400690078735 0.754414975643158 0.10093200206756592 -0.6485909819602966
          0.5264639854431152 0.1263190060853958 -0.8407610058784485 0.5929780006408691 0.12243100255727768 -0.7958570122718811
          0.6951410174369812 0.1370439976453781 -0.705689013004303 0.5985789895057678 0.08906500041484833 -0.7960969805717468
          0.8389120101928711 0.13312000036239624 -0.527737021446228 0.821835994720459 0.12507900595664978 -0.5558239817619324
          0.5142520070075989 0.10969900339841843 -0.8505939841270447 0.4692389965057373 0.08410699665546417 -0.879056990146637
          0.8076720237731934 0.14754199981689453 -0.5708739757537842 0.851764976978302 0.17833299934864044 -0.4926399886608124
          0.9334520101547241 0.19059200584888458 -0.30387699604034424 0.97182297706604 0.21667400002479553 -0.09280599653720856
          0.9315840005874634 0.047113001346588135 -0.3604609966278076 0.9104499816894531 0.06057899817824364 -0.40915998816490173
          0.6311219930648804 0.09541100263595581 -0.7697929739952087 0.7654569745063782 0.06082199886441231 -0.6406059861183167
          0.7945020198822021 0.07664000242948532 -0.6024060249328613 0.5579519867897034 0.1020670011639595 -0.8235719799995422
          0.601751983165741 0.048576999455690384 -0.7972040176391602 0.5573890209197998 0.07934600114822388 -0.8264510035514832
          0.6079530119895935 0.1063229963183403 -0.7868220210075378 0.7559040188789368 0.1676270067691803 0.6328589916229248
          0.854544997215271 0.09765099734067917 0.5101140141487122 0.9856020212173462 0.03978399932384491 -0.16433200240135193
          0.9978860020637512 0.05867199972271919 -0.027945000678300858 0.8706589937210083 0.0729610025882721 0.4864470064640045
          0.8979889750480652 0.06831000000238419 0.4346829950809479 0.9622039794921875 0.05245999991893768 0.26722800731658936
          0.7270060181617737 0.09247700124979019 0.6803749799728394 0.654770016670227 0.08329000324010849 0.7512249946594238
          0.6057419776916504 0.09800799936056137 0.7896019816398621 0.6400060057640076 0.15422099828720093 0.7527340054512024
          0.5702530145645142 0.11857099831104279 0.8128669857978821 0.9754030108451843 0.22019800543785095 -0.01011900044977665
          0.9486510157585144 0.23720400035381317 0.20927199721336365 0.7394899725914001 0.16825200617313385 0.6518020033836365
          0.6762589812278748 0.1654140055179596 0.717851996421814 0.8372359871864319 0.21627900004386902 0.5022540092468262
          0.4320720136165619 0.07870499789714813 -0.8983979821205139 0.3458560109138489 0.09692800045013428 -0.9332680106163025
          0.2568050026893616 0.0716869980096817 -0.9638010263442993 0.5968930125236511 0.1282700002193451 -0.7920010089874268
          0.5133500099182129 0.1078450009226799 -0.8513759970664978 0.7265070080757141 0.1416569948196411 -0.6723989844322205
          0.7025960087776184 0.13017499446868896 -0.6995810270309448 0.6160020232200623 0.12874600291252136 -0.7771520018577576
          0.46266499161720276 0.088468998670578 -0.8821079730987549 0.7678089737892151 0.14760799705982208 -0.6234440207481384
          0.9350569844245911 0.07585100084543228 -0.3462870121002197 0.9290869832038879 0.06878499686717987 -0.36340999603271484
          0.3417940139770508 0.09691199660301208 -0.9347649812698364 0.2538810074329376 0.04791500046849251 -0.966048002243042
          0.2024890035390854 0.05394100025296211 -0.9777979850769043 0.7624599933624268 0.14915400743484497 -0.6296089887619019
          0.7629709839820862 0.15592800080776215 -0.627344012260437 0.8275750279426575 0.1340479999780655 -0.5451160073280334
          0.8233720064163208 0.21100600063800812 -0.5268160104751587 0.8921149969100952 0.2227800041437149 -0.3930650055408478
          0.942225992679596 0.2361699938774109 -0.2375590056180954 0.9725720286369324 0.23253099620342255 -0.005787000060081482
          0.9385939836502075 0.22972699999809265 0.2574230134487152 0.9364110231399536 0.238429993391037 0.2574610114097595
          0.8520399928092957 0.053732000291347504 -0.5207110047340393 0.8139500021934509 0.061528000980615616 -0.5776680111885071
          0.957863986492157 0.05992700159549713 -0.2809019982814789 0.7298719882965088 0.0656139999628067 -0.6804280281066895
          0.43390899896621704 0.10397499799728394 -0.8949369788169861 0.4134080111980438 0.09265699982643127 -0.9058189988136292
          0.5425220131874084 0.11539699882268906 -0.8320779800415039 0.48733800649642944 0.08169399946928024 -0.8693829774856567
          0.2839530110359192 0.07801800221204758 -0.9556589722633362 0.6268389821052551 0.045458000153303146 -0.7778220176696777
          0.481548011302948 0.027285000309348106 -0.8759949803352356 0.4289720058441162 0.056265998631715775 -0.9015640020370483
          0.771917998790741 0.0696059986948967 0.6318989992141724 0.6991530060768127 0.04365700110793114 0.7136380076408386
          0.7346630096435547 0.07532200217247009 0.6742380261421204 0.6947140097618103 0.04936499893665314 0.7175899744033813
          0.9805729985237122 0.03970399871468544 -0.19209599494934082 0.9966210126876831 0.06699900329113007 0.047522999346256256
          0.76528400182724 0.04407700151205063 0.6421809792518616 0.8654559850692749 0.04121600091457367 0.4992870092391968
          0.911611020565033 0.04889100044965744 0.4081369936466217 0.8697320222854614 0.02926200069487095 0.49265599250793457
          0.9568399786949158 0.03209099918603897 0.2888369858264923 0.9160109758377075 0.03471200168132782 0.3996489942073822
          0.5056459903717041 0.03221999853849411 0.8621389865875244 0.5344330072402954 0.05157700181007385 0.8436359763145447
          0.42467200756073 0.08688700199127197 0.9011679887771606 0.5328620076179504 0.1083270013332367 0.8392400145530701
          0.5651370286941528 0.14911200106143951 0.8114100098609924 0.5285469889640808 0.1052049994468689 0.8423600196838379
          0.5698040127754211 0.13092400133609772 0.8112840056419373 0.4216260015964508 0.0930820032954216 0.9019799828529358
          0.6432049870491028 0.1360750049352646 0.7535060048103333 0.6850159764289856 0.1817770004272461 0.705485999584198
          0.7771430015563965 0.2045689970254898 0.5951480269432068 0.4106239974498749 0.08949799835681915 -0.907401978969574
          0.3804349899291992 0.07453999668359756 -0.9217990040779114 0.3497549891471863 0.06403599679470062 -0.9346500039100647
          0.0006500000017695129 0.027713999152183533 -0.9996160268783569 -0.1971450001001358 0.006331999786198139 -0.9803540110588074
          0.08140300214290619 0.045145999640226364 -0.9956579804420471 0.21128399670124054 0.06863699853420258 -0.9750120043754578
          0.44839000701904297 0.09350399672985077 -0.8889340162277222 0.798632025718689 0.11091200262308121 -0.5915110111236572
          0.6965100169181824 0.1476459950208664 -0.702193021774292 0.5784800052642822 0.12955999374389648 -0.8053410053253174
          0.4869219958782196 0.12056799978017807 -0.8650839924812317 0.28836899995803833 0.06996399909257889 -0.9549599885940552
          0.21283100545406342 0.043988000601530075 -0.9760980010032654 0.9319300055503845 0.08209399878978729 -0.3532249927520752
          0.1178399994969368 0.028342999517917633 -0.9926279783248901 -0.06649500131607056 -0.006498000118881464 -0.9977660179138184
          0.71806401014328 0.16119599342346191 -0.6770520210266113 0.7443259954452515 0.15861399471759796 -0.6487069725990295
          0.7193809747695923 0.18562999367713928 -0.6693530082702637 0.8358669877052307 0.21288299560546875 -0.5059710144996643
          0.8066089749336243 0.24966099858283997 -0.5357720255851746 0.8925120234489441 0.24879799783229828 -0.3761940002441406
          0.9658550024032593 0.25302600860595703 -0.055691998451948166 0.9299219846725464 0.27140000462532043 -0.24816599488258362
          0.9168170094490051 0.23777300119400024 0.32079800963401794 0.8438109755516052 0.19187000393867493 0.5011680126190186
          0.846979022026062 0.208406001329422 0.4890739917755127 0.8581749796867371 0.05763699859380722 -0.5101109743118286
          0.7641159892082214 0.08623799681663513 -0.6392890214920044 0.940900981426239 0.04181399941444397 -0.33608999848365784
          0.25459301471710205 0.06891199946403503 -0.9645900130271912 0.3622080087661743 0.09836699813604355 -0.9268919825553894
          0.22149600088596344 0.09438899904489517 -0.9705820083618164 -0.024562999606132507 0.05549599975347519 -0.9981570243835449
          0.19943299889564514 0.09833600372076035 -0.97496497631073 0.47725799679756165 0.06611800193786621 -0.8762720227241516
          -0.2065110057592392 0.029256999492645264 -0.9780070185661316 -0.0421300008893013 0.059755001217126846 -0.9973239898681641
          0.5512509942054749 0.0951630026102066 -0.8288949728012085 0.36072400212287903 0.0978889986872673 -0.9275209903717041
          0.42217499017715454 -0.0036039999686181545 -0.9065070152282715 0.6606760025024414 0.0034570000134408474 -0.7506629824638367
          0.7792860269546509 0.00916799996048212 -0.626600980758667 0.3334429860115051 0.022102000191807747 -0.9425110220909119
          0.30140501260757446 0.055358998477458954 -0.9518880248069763 0.6190950274467468 0.039701998233795166 0.7843120098114014
          0.5169439911842346 0.03277000039815903 0.8553910255432129 0.5714499950408936 0.050909001380205154 0.81905597448349
          0.557548999786377 0.005096999928355217 0.830128014087677 0.9303560256958008 0.017636999487876892 -0.3662320077419281
          0.947359025478363 0.003073000116273761 -0.3201580047607422 0.9995070099830627 0.021247999742627144 -0.023118000477552414
          0.771507978439331 0.020267000421881676 0.6358969807624817 0.624023973941803 0.008617999963462353 0.7813569903373718
          0.7252640128135681 0.00015199999324977398 0.6884710192680359 0.7158250212669373 -0.03588499873876572 0.6973569989204407
          0.8796179890632629 0.014305000193417072 0.4754660129547119 0.9856659770011902 -0.024594999849796295 0.16690599918365479
          0.8489900231361389 -0.03661400079727173 0.5271379947662354 0.8786219954490662 -0.05507100000977516 0.47433099150657654
          0.38815200328826904 0.045931000262498856 0.92044997215271 0.36789700388908386 0.04267600178718567 0.9288870096206665
          0.15679499506950378 0.04957300052046776 0.9863860011100769 0.13995200395584106 0.06800500303506851 0.987820029258728
          0.5666419863700867 0.15127800405025482 0.8099579811096191 0.47497400641441345 0.10949800163507462 0.8731610178947449
          0.2953549921512604 0.09407100081443787 0.9507449865341187 0.16594800353050232 0.03839299827814102 0.9853870272636414
          0.5316290259361267 0.18249599635601044 0.8270829916000366 0.6505969762802124 0.17538399994373322 0.738893985748291
          0.7683029770851135 0.20904000103473663 0.6049900054931641 -0.22446100413799286 -0.03876199945807457 -0.9737120270729065
          -0.43584001064300537 -0.06357699632644653 -0.8977760076522827 -0.08383700251579285 0.03565699979662895 -0.9958410263061523
          -0.4863109886646271 -0.05522900074720383 -0.8720390200614929 -0.3974969983100891 -0.024731000885367393 -0.9172700047492981
          -0.4840100109577179 -0.051566001027822495 -0.8735420107841492 -0.2715339958667755 -0.008708000183105469 -0.9623889923095703
          0.08635299652814865 0.06516300141811371 -0.9941310286521912 0.5871729850769043 0.1527950018644333 -0.7949100136756897
          0.5635719895362854 0.13829800486564636 -0.814408004283905 0.43869999051094055 0.09397800266742706 -0.8937060236930847
          -0.039990998804569244 0.01856200024485588 -0.9990280270576477 0.2613289952278137 0.07428299635648727 -0.9623870253562927
          -0.10592599958181381 0.01772099919617176 -0.9942160248756409 -0.2956109941005707 -0.01607000082731247 -0.9551730155944824
          -0.3286049962043762 -0.052914999425411224 -0.9429839849472046 0.6862260103225708 0.15348200500011444 -0.7110109925270081
          0.7145299911499023 0.18984900414943695 -0.6733530163764954 0.7873610258102417 0.14075599610805511 -0.6002079844474792
          0.6769220232963562 0.1680770069360733 -0.7166079878807068 0.7934539914131165 0.2011290043592453 -0.5744370222091675
          0.6626690030097961 0.14864900708198547 -0.7340120077133179 0.7610729932785034 0.23396199941635132 -0.6050040125846863
          0.862945020198822 0.22413800656795502 -0.4528670012950897 0.7380599975585938 0.22713600099086761 -0.6353549957275391
          0.9070259928703308 0.23969599604606628 -0.34619298577308655 0.9543430209159851 0.2891730070114136 -0.07489100098609924
          0.9260290265083313 0.3045080006122589 0.2230360060930252 0.9048569798469543 0.26058900356292725 -0.33664101362228394
          0.9363120198249817 0.2921459972858429 -0.19485999643802643 0.9513130187988281 0.2814910113811493 -0.1255670040845871
          0.7686660289764404 0.2829430103302002 0.5736680030822754 0.8695780038833618 0.29058900475502014 0.3992390036582947
          0.8996919989585876 0.026270000264048576 -0.43573299050331116 0.13482500612735748 0.08632499724626541 -0.9871019721031189
          -0.2852660119533539 0.016440000385046005 -0.9583070278167725 -0.07222499698400497 0.05697700008749962 -0.9957600235939026
          0.7998110055923462 0.06345699727535248 -0.59688800573349 0.8714280128479004 0.025738999247550964 -0.4898490011692047
          0.8945729732513428 0.047134000808000565 -0.44442999362945557 -0.23892100155353546 0.013287999667227268 -0.9709479808807373
          -0.4539490044116974 0.001560000004246831 -0.8910260200500488 -0.5280539989471436 -0.04107299819588661 -0.8482170104980469
          -0.47553399205207825 -0.025592999532818794 -0.8793249726295471 -0.2754780054092407 0.04605599865317345 -0.9602029919624329
          -0.32232001423835754 0.016289999708533287 -0.946491003036499 0.4778450131416321 -0.04220699891448021 -0.8774300217628479
          0.2615930140018463 0.009503000415861607 -0.9651319980621338 0.19160500168800354 -0.015476999804377556 -0.9813500046730042
          0.35223498940467834 -0.04798699915409088 -0.9346799850463867 0.48091599345207214 -0.020697999745607376 -0.8765220046043396
          0.8574320077896118 0.022468000650405884 -0.5141069889068604 0.8413439989089966 0.021490000188350677 -0.5400729775428772
          0.7006310224533081 -0.031654998660087585 -0.7128210067749023 0.8612809777259827 0.0062779998406767845 -0.5080900192260742
          0.5242159962654114 -0.015953000634908676 -0.8514360189437866 0.39871901273727417 0.0840660035610199 -0.9132120013237
          0.05759400129318237 0.03966899961233139 -0.9975519776344299 0.18094399571418762 0.015949999913573265 -0.9833639860153198
          0.4321340024471283 0.0265749990940094 0.9014170169830322 0.23545700311660767 0.016402000561356544 0.971746027469635
          0.9628120064735413 -0.018773000687360764 -0.26952001452445984 0.9999390244483948 -0.004765000194311142 -0.010007999837398529
          0.43803301453590393 -0.015607999637722969 0.8988239765167236 0.5364099740982056 -0.07862599939107895 0.8402870297431946
          0.7375249862670898 -0.08593399822711945 0.6698300242424011 0.622452974319458 -0.1104929968714714 0.774819016456604
          0.7649049758911133 -0.02549700066447258 0.643638014793396 0.9541059732437134 -0.08818099647760391 0.28619301319122314
          0.9740710258483887 -0.04964499920606613 0.22072799503803253 0.8930929899215698 -0.061599001288414 0.44563499093055725
          0.8378360271453857 -0.1033950001001358 0.5360419750213623 0.022447999566793442 0.028596999123692513 0.9993389844894409
          -0.16675400733947754 0.057064998894929886 0.9843459725379944 -0.16730299592018127 0.007065000012516975 0.9858800172805786
          -0.015181999653577805 0.0398159995675087 0.9990919828414917 -0.12633100152015686 0.03906499966979027 0.9912189841270447
          0.4636690020561218 0.1690800040960312 0.8697260022163391 0.39043399691581726 0.0494690015912056 0.9193009734153748
          0.36552900075912476 0.09865999966859818 0.9255560040473938 0.3518120050430298 0.12090899795293808 0.9282289743423462
          0.04701700061559677 0.056279998272657394 0.9973070025444031 0.29314398765563965 0.04053900018334389 0.9552080035209656
          -0.05559400096535683 0.06683699786663055 0.996213972568512 -0.01769700087606907 0.07496800273656845 0.9970290064811707
          0.5082290172576904 0.1815280020236969 0.8418729901313782 0.39218801259994507 0.1853010058403015 0.9010289907455444
          0.4023689925670624 0.16567300260066986 0.9003620147705078 0.40813499689102173 0.1764020025730133 0.8957160115242004
          0.5454840064048767 0.21144400537014008 0.811011016368866 0.6562950015068054 0.21495500206947327 0.7232369780540466
          -0.3945370018482208 -0.06654399633407593 -0.9164680242538452 -0.6195480227470398 -0.08074499666690826 -0.7807949781417847
          -0.6202989816665649 -0.061576999723911285 -0.781944990158081 -0.28095200657844543 0.004102999810129404 -0.9597129821777344
          -0.4305579960346222 -0.02050199918448925 -0.9023299813270569 -0.4413990080356598 -0.0030930000357329845 -0.8973050117492676
          -0.7495350241661072 -0.09392800182104111 -0.6552659869194031 -0.6921089887619019 -0.07687299698591232 -0.7176880240440369
          -0.6271510124206543 -0.05182399973273277 -0.7771720290184021 0.6029340028762817 0.1379459947347641 -0.7857750058174133
          0.544297993183136 0.12411800026893616 -0.8296589851379395 0.5114290118217468 0.13624900579452515 -0.8484560251235962
          0.5528740286827087 0.1173430010676384 -0.8249610066413879 0.4426650106906891 0.09320300072431564 -0.8918300271034241
          0.022633999586105347 0.04996100068092346 -0.9984949827194214 -0.214820995926857 -0.014041000045835972 -0.9765530228614807
          -0.35527899861335754 -0.02721799910068512 -0.9343640208244324 -0.34982800483703613 0.024701999500393867 -0.9364879727363586
          0.36537399888038635 0.10190600156784058 -0.9252660274505615 -0.5459219813346863 -0.03690600022673607 -0.8370230197906494
          -0.46192699670791626 -0.027806999161839485 -0.8864820003509521 -0.3598940074443817 -0.027428999543190002 -0.9325900077819824
          0.9481419920921326 0.0768200010061264 -0.30842500925064087 0.7736459970474243 0.22958099842071533 -0.5905629992485046
          0.6824970245361328 0.22901099920272827 -0.6940839886665344 0.762785017490387 0.1699880063533783 -0.6239100098609924
          0.9166859984397888 0.08462800085544586 -0.39054399728775024 0.5622220039367676 0.1537349969148636 -0.8125709891319275
          0.528652012348175 0.11348900198936462 -0.8412179946899414 0.7389230132102966 0.14910799264907837 -0.6570839881896973
          0.8384190201759338 0.28370198607444763 -0.46536698937416077 0.9440619945526123 0.31535500288009644 0.0964289978146553
          0.7670919895172119 0.34350499510765076 0.541824996471405 0.8503779768943787 0.3448300063610077 0.3974280059337616
          0.8501830101013184 0.3315899968147278 0.4089469909667969 0.9088119864463806 0.31272101402282715 -0.2761619985103607
          0.8814589977264404 0.2941249907016754 -0.3694869875907898 0.9402679800987244 0.33545199036598206 0.05804099887609482
          0.9530140161514282 0.30223000049591064 0.020527999848127365 0.9401559829711914 0.31200000643730164 -0.13697700202465057
          0.5938799977302551 0.30294299125671387 0.7453410029411316 -0.5045850276947021 -0.01078999973833561 -0.8632940053939819
          -0.25488901138305664 0.049212999641895294 -0.9657170176506042 -0.4376479983329773 0.002440999960526824 -0.8991429805755615
          -0.3556149899959564 0.03737900033593178 -0.9338849782943726 -0.6904429793357849 -0.055493999272584915 -0.7212550044059753
          -0.6074339747428894 -0.05443299934267998 -0.7925029993057251 -0.6924449801445007 -0.08243999630212784 -0.7167450189590454
          -0.6087560057640076 -0.04230500012636185 -0.7922289967536926 -0.4597040116786957 0.030143000185489655 -0.8875600099563599
          0.20470699667930603 0.04537799954414368 -0.977770984172821 0.11063099652528763 0.0029249999206513166 -0.9938570261001587
          0.16005200147628784 -0.046879999339580536 -0.9859949946403503 0.07170800119638443 -0.021511999890208244 -0.9971939921379089
          0.5476639866828918 -0.06026500090956688 -0.8345249891281128 0.2351430058479309 -0.08063700050115585 -0.9686099886894226
          0.37428799271583557 -0.09200000017881393 -0.9227370023727417 0.4958469867706299 -0.08789200335741043 -0.8639510273933411
          0.5281850099563599 -0.06764599680900574 -0.8464310169219971 0.8656870126724243 -0.038043998181819916 -0.4991370141506195
          0.7254559993743896 -0.06588699668645859 -0.6851080060005188 0.8180440068244934 -0.03635299950838089 -0.5740060210227966
          -0.24118700623512268 0.008283000439405441 -0.9704430103302002 -0.03759700059890747 0.03403099998831749 -0.9987130165100098
          0.15154199302196503 0.07173299789428711 -0.9858450293540955 0.10499099642038345 -0.010029000230133533 0.994422972202301
          -0.08885599672794342 0.0063669998198747635 0.9960240125656128 0.875091016292572 -0.05492600053548813 -0.4808320105075836
          0.9721260070800781 -0.054666999727487564 -0.22799600660800934 0.9962249994277954 -0.06098699942231178 -0.06177699938416481
          0.9934980273246765 -0.08604300022125244 0.07454799860715866 0.3710480034351349 -0.021034000441432 0.9283750057220459
          0.24367299675941467 -0.007455000188201666 0.9698290228843689 0.38662201166152954 -0.09151499718427658 0.9176859855651855
          0.4159429967403412 -0.14600400626659393 0.8975930213928223 0.31303098797798157 -0.10935000330209732 0.9434270262718201
          0.5785599946975708 -0.16766700148582458 0.7982209920883179 0.7326279878616333 -0.20517699420452118 0.6489670276641846
          0.9242759943008423 -0.0433650016784668 0.3792549967765808 0.9178720116615295 -0.04937800019979477 0.3937920033931732
          0.9503509998321533 -0.12417899817228317 0.28532901406288147 0.8657050132751465 -0.049219001084566116 0.4981290102005005
          0.8842740058898926 -0.05555199831724167 0.46365100145339966 0.8405299782752991 -0.19108399748802185 0.5069479942321777
          0.9037370085716248 -0.14321500062942505 0.403421014547348 -0.2938930094242096 0.00003099999958067201 0.9558380246162415
          -0.3901680111885071 0.00752299977466464 0.9207130074501038 -0.32833099365234375 0.016573000699281693 0.9444180130958557
          -0.4784190058708191 0.01651499979197979 0.8779760003089905 -0.3499549925327301 -0.017629999667406082 0.9366000294685364
          -0.2910650074481964 0.006868999917060137 0.9566789865493774 0.35332000255584717 0.14856599271297455 0.9236299991607666
          0.1449420005083084 0.11492999643087387 0.9827430248260498 0.102292001247406 0.024700000882148743 0.9944480061531067
          0.3182539939880371 0.12301000207662582 0.9399909973144531 -0.1969510018825531 0.02505899965763092 0.9800930023193359
          -0.1922519952058792 0.04311700165271759 0.9803979992866516 -0.3111029863357544 0.03519599884748459 0.949724018573761
          0.4073430001735687 0.18431800603866577 0.8944820165634155 0.3439129889011383 0.14619000256061554 0.9275519847869873
          0.29780998826026917 0.14132800698280334 0.9441059827804565 0.3664099872112274 0.1836549937725067 0.9121479988098145
          0.20552000403404236 0.13714599609375 0.968995988368988 0.1853789985179901 0.14506199955940247 0.971900999546051
          0.39464500546455383 0.2225620001554489 0.8914719820022583 0.505266010761261 0.28529199957847595 0.8144410252571106
          0.9731169939041138 -0.020431000739336014 -0.2294050008058548 0.7457320094108582 -0.06415300071239471 -0.6631500124931335
          -0.5337799787521362 -0.08429499715566635 -0.8414120078086853 -0.7566480040550232 -0.1030770018696785 -0.6456469893455505
          -0.5307949781417847 -0.031106000766158104 -0.8469290137290955 -0.6407060027122498 -0.07391399890184402 -0.7642199993133545
          -0.511726975440979 -0.009618000127375126 -0.8590940237045288 -0.8527430295944214 -0.11346600204706192 -0.5098580121994019
          -0.7953289747238159 -0.1225610002875328 -0.593658983707428 -0.8575999736785889 -0.11986900120973587 -0.5001540184020996
          -0.8409630060195923 -0.09525600075721741 -0.5326420068740845 -0.7586619853973389 -0.09839300066232681 -0.6440110206604004
          -0.7359930276870728 -0.08646100014448166 -0.6714460253715515 -0.22304800152778625 0.05048200115561485 -0.9734990000724792
          -0.1803639978170395 0.03947500139474869 -0.982807993888855 0.21936599910259247 0.11332900077104568 -0.9690380096435547
          -0.05771299824118614 0.10403899848461151 -0.9928969740867615 -0.4559650123119354 -0.030006999149918556 -0.8894919753074646
          0.34075498580932617 0.140952005982399 -0.9295259714126587 0.43483200669288635 0.150286003947258 -0.8878819942474365
          -0.7539139986038208 -0.08515699952840805 -0.6514310240745544 -0.7715880274772644 -0.11159799993038177 -0.6262580156326294
          -0.6476219892501831 -0.056866999715566635 -0.7598369717597961 -0.6632199883460999 -0.054179999977350235 -0.7464609742164612
          -0.598675012588501 -0.04504700005054474 -0.7997239828109741 0.7468299865722656 -0.03247300162911415 -0.664222002029419
          0.9160529971122742 0.1087770015001297 -0.38602301478385925 0.7723190188407898 0.2718069851398468 -0.5741469860076904
          0.6298050284385681 0.2816309928894043 -0.7238990068435669 0.6247720122337341 0.229093998670578 -0.7464420199394226
          0.6522300243377686 0.1825760006904602 -0.7357059717178345 0.6921870112419128 0.3400390148162842 -0.6365919709205627
          0.6783649921417236 0.1928109973669052 -0.7089740037918091 0.40692299604415894 0.1552020013332367 -0.900180995464325
          0.6186169981956482 0.16986699402332306 -0.7671099901199341 0.5950210094451904 0.16750699281692505 -0.7860609889030457
          0.6623560190200806 0.18505799770355225 -0.7259740233421326 0.8207119703292847 0.41059398651123047 -0.3972969949245453
          0.8775309920310974 0.31983301043510437 -0.3572770059108734 0.6917359828948975 0.345674991607666 0.6340429782867432
          0.8723520040512085 0.3579919934272766 0.3329310119152069 0.7814689874649048 0.35444098711013794 0.5134959816932678