<?xml version="1.0"?>
<VTKFile type="PolyData" version="0.1" byte_order="LittleEndian" header_type="UInt32" compressor="vtkZLibDataCompressor">
  <PolyData>
    <Piece NumberOfPoints="309" NumberOfVerts="0" NumberOfLines="0" NumberOfStrips="0" NumberOfPolys="588">
      <PointData Normals="Normals">
        <DataArray type="Float32" Name="Normals" NumberOfComponents="3" format="ascii" RangeMin="0.9999993197194663" RangeMax="1.0000007312064236">
          -0.24196499586105347 0.9283869862556458 -0.28204599022865295 -0.42161500453948975 0.8912960290908813 -0.1668339967727661
          -0.6703299880027771 0.7146109938621521 -0.199971005320549 -0.776203989982605 0.488631010055542 -0.3984310030937195
          -0.6494529843330383 0.37439900636672974 -0.66184401512146 -0.39081400632858276 0.43125098943710327 -0.813194990158081
          -0.16592000424861908 0.6251559853553772 -0.762660026550293 -0.10167200118303299 0.8354610204696655 -0.5400630235671997
          0.13327200710773468 0.8903200030326843 -0.4353950023651123 -0.021126000210642815 0.9973080158233643 0.07022000104188919
          -0.33007800579071045 0.9334710240364075 0.14028899371623993 -0.7617220282554626 0.635977029800415 0.12374500185251236
          -0.924036979675293 0.3147990107536316 -0.21692800521850586 -0.7558720111846924 0.12254499644041061 -0.6431490182876587
          -0.34082499146461487 0.21020300686359406 -0.9163259863853455 0.08083400130271912 0.45626699924468994 -0.8861640095710754
          0.22685499489307404 0.8117460012435913 -0.5381489992141724 0.16880300641059875 0.9210579991340637 -0.350939005613327
          0.0821240022778511 0.9747719764709473 0.20754699409008026 -0.23554900288581848 0.8782839775085449 0.41609400510787964
          -0.7848269939422607 0.49026501178741455 0.3790610134601593 -0.9966520071029663 0.06247600167989731 -0.052740998566150665
          -0.7760390043258667 -0.14617900550365448 -0.613510012626648 -0.2241780012845993 -0.06477099657058716 -0.9723929762840271
          0.2818959951400757 0.277213990688324 -0.9185240268707275 0.4726159870624542 0.7207959890365601 -0.5070379972457886
          0.4387420117855072 0.8700760006904602 -0.22466300427913666 0.28356900811195374 0.8558220267295837 0.4326159954071045
          0.015634000301361084 0.8850269913673401 0.46527600288391113 -0.6246569752693176 0.47415098547935486 0.6204720139503479
          -0.8978490233421326 -0.1965779960155487 0.39398500323295593 -0.7613450288772583 -0.5927489995956421 -0.2626839876174927
          -0.2563230097293854 -0.5652350187301636 -0.7840970158576965 0.5366899967193604 -0.2602570056915283 -0.8026400208473206
          0.7385150194168091 0.4412359893321991 -0.5098099708557129 0.6604959964752197 0.7437599897384644 -0.10279799997806549
          0.6443549990653992 0.7269150018692017 0.23749099671840668 0.02359900064766407 0.8795719742774963 0.475178986787796
          -0.6256170272827148 0.5095509886741638 0.5907289981842041 -0.9123669862747192 0.1925400048494339 0.361268013715744
          -0.8123949766159058 -0.5535299777984619 0.18335500359535217 -0.6490470170974731 -0.7043370008468628 -0.28748399019241333
          0.12334100157022476 -0.6299960017204285 -0.7667409777641296 0.7072970271110535 -0.1409599930047989 -0.6927199959754944
          0.838021993637085 0.4738050103187561 -0.27060800790786743 0.7595289945602417 0.5475059747695923 0.35121598839759827
          0.9363430142402649 0.07255999743938446 0.34350600838661194 0.8468779921531677 0.3480609953403473 0.40205898880958557
          0.18734100461006165 0.4698289930820465 0.8626499772071838 -0.23837999999523163 0.26849499344825745 0.9333199858665466
          -0.7787250280380249 0.09285499900579453 0.6204550266265869 -0.9149129986763 -0.2818869948387146 0.28891700506210327
          -0.7864990234375 -0.6016809940338135 0.1392810046672821 -0.8515639901161194 -0.51214998960495 -0.11198300123214722
          -0.30314400792121887 -0.45778998732566833 -0.835781991481781 0.39772000908851624 -0.36852899193763733 -0.840241014957428
          0.6834189891815186 -0.39880800247192383 -0.6114659905433655 0.9312000274658203 -0.0994110032916069 -0.35069000720977783
          0.9981499910354614 -0.008967000059783459 0.06013600155711174 0.7578909993171692 0.1952980011701584 0.6224629878997803
          -0.4428589940071106 0.7079330086708069 -0.5501869916915894 0.9846270084381104 -0.1538510024547577 0.08270099759101868
          0.9629520177841187 0.0029460000805556774 -0.2696569859981537 0.9459270238876343 -0.07978600263595581 0.31441301107406616
          0.9473080039024353 -0.14462199807167053 0.28581899404525757 0.3236539959907532 -0.17889200150966644 0.9291099905967712
          0.373106986284256 -0.24014100432395935 0.8961719870567322 -0.44081899523735046 -0.13503800332546234 0.8873800039291382
          -0.3152570128440857 -0.2825410068035126 0.9059709906578064 -0.9154639840126038 -0.07211499661207199 0.39588600397109985
          -0.7962419986724854 -0.2201240062713623 0.5635110139846802 -0.9948440194129944 -0.06776600331068039 0.07545000314712524
          -0.9455029964447021 0.0010989999864250422 -0.3256109952926636 -0.867654025554657 -0.10118699818849564 -0.48676300048828125
          -0.36284399032592773 -0.04236200079321861 -0.93088698387146 -0.15714900195598602 -0.14950500428676605 -0.9761930108070374
          0.46790599822998047 -0.03711400181055069 -0.8829990029335022 0.7196459770202637 -0.16047899425029755 -0.6755419969558716
          0.9626100063323975 -0.05575700104236603 -0.2650899887084961 0.9728649854660034 -0.2313160002231598 0.00520299980416894
          0.9824659824371338 -0.08458899706602097 0.16614599525928497 0.981535017490387 -0.03198099881410599 -0.18859200179576874
          0.885936975479126 -0.04448999837040901 0.461667001247406 0.11520799994468689 -0.037877000868320465 0.992618978023529
          -0.6103600263595581 -0.017562000080943108 0.7919290065765381 -0.9506440162658691 0.004912999924272299 0.31024599075317383
          -0.9643080234527588 0.006572000216692686 -0.2647010087966919 -0.5462170243263245 0.059953998774290085 -0.8354949951171875
          0.25495800375938416 0.03674200177192688 -0.9662539958953857 0.8290070295333862 -0.025922000408172607 -0.5586370229721069
          0.9947180151939392 -0.025124000385403633 -0.09952499717473984 0.9899410009384155 -0.039806000888347626 -0.13576899468898773
          0.8936120271682739 -0.06011199951171875 0.44479700922966003 0.21800999343395233 -0.042507998645305634 0.9750199913978577
          -0.5543270111083984 -0.007801000028848648 0.8322629928588867 -0.9521759748458862 0.00046400001156143844 0.3055509924888611
          -0.9456220269203186 0.05637799948453903 -0.32034599781036377 -0.2767289876937866 0.0813559964299202 -0.9574980139732361
          0.6052749752998352 0.016688000410795212 -0.7958419919013977 0.9090549945831299 -0.03960200026631355 -0.41479000449180603
          0.9545860290527344 -0.022578999400138855 -0.29708001017570496 0.9236159920692444 -0.08118399977684021 0.37462300062179565
          0.34108999371528625 -0.07757499814033508 0.9368240237236023 -0.32951900362968445 -0.0711819976568222 0.941461980342865
          -0.8579229712486267 -0.033757999539375305 0.5126680135726929 -0.9984390139579773 0.03136499971151352 -0.046206001192331314
          -0.6098319888114929 0.07252100110054016 -0.7892060279846191 0.4293529987335205 0.035801999270915985 -0.9024270176887512
          -0.7648940086364746 -0.40539899468421936 0.5005890130996704 -0.7764099836349487 -0.49263501167297363 0.3930630087852478
          -0.9713929891586304 -0.19738000631332397 0.13204799592494965 -0.9290649890899658 -0.3541240096092224 0.10693000257015228
          -0.9205330014228821 -0.22192400693893433 -0.32150998711586 0.3915039896965027 -0.21517199277877808 -0.894665002822876
          0.7119989991188049 -0.36736801266670227 -0.5984129905700684 0.7166889905929565 -0.47152799367904663 -0.5138260126113892
          0.8742370009422302 -0.47713398933410645 -0.08973400294780731 0.8922079801559448 -0.4505699872970581 -0.030851999297738075
          0.808883011341095 -0.37643399834632874 0.45166999101638794 0.8901010155677795 -0.42332398891448975 -0.16886800527572632
          0.8913170099258423 -0.4151400029659271 0.1822420060634613 0.8822789788246155 -0.1923149973154068 0.4296500086784363
          0.9092370271682739 -0.13628900051116943 0.3933359980583191 0.9331089854240417 -0.2597520053386688 0.24866999685764313
          0.9073669910430908 -0.21342000365257263 0.36212900280952454 0.30605700612068176 -0.19027799367904663 0.9328039884567261
          -0.3805440068244934 -0.36268600821495056 0.8506730198860168 0.3185740113258362 -0.330502986907959 0.8884130120277405
          -0.23576399683952332 -0.40748199820518494 0.8822550177574158 0.4023689925670624 -0.11331599950790405 -0.9084380269050598
          0.21627600491046906 -0.38780099153518677 -0.8960109949111938 -0.2626110017299652 -0.6526439785957336 -0.7106969952583313
          -0.29854199290275574 -0.9262149930000305 -0.23021399974822998 0.07498300075531006 -0.7377579808235168 -0.6708880066871643
          0.34471800923347473 -0.7648630142211914 -0.5442000031471252 -0.6000930070877075 0.0230919998139143 -0.7995960116386414
          -0.7471680045127869 -0.11106300354003906 -0.6552900075912476 -0.7350350022315979 -0.6544550061225891 -0.17723700404167175
          -0.7196490168571472 -0.6891210079193115 -0.08495800197124481 -0.7404189705848694 -0.48871099948883057 -0.4614560008049011
          -0.48446300625801086 -0.7952449917793274 -0.364529013633728 0.08520100265741348 0.6588749885559082 -0.7474120259284973
          -0.8946080207824707 0.34606799483299255 -0.28269100189208984 -0.9910600185394287 0.012451999820768833 -0.13283400237560272
          -0.6915169954299927 -0.6005579829216003 -0.40141499042510986 -0.9443579912185669 -0.14834600687026978 -0.2935650050640106
          -0.9390519857406616 -0.3279449939727783 -0.10311999917030334 -0.10943199694156647 0.8038470149040222 -0.5846840143203735
          -0.9955189824104309 -0.04159599915146828 0.08492299914360046 -0.9878270030021667 -0.11108099669218063 0.10889600217342377
          -0.9148420095443726 0.2914060056209564 0.27954599261283875 -0.9563249945640564 0.2919659912586212 0.01411100011318922
          -0.8433259725570679 0.1899850070476532 -0.5026999711990356 -0.740369975566864 -0.08376999944448471 -0.6669589877128601
          -0.8353040218353271 -0.17274600267410278 0.521943986415863 -0.9202939867973328 0.11074099689722061 0.37522798776626587
          -0.08678100258111954 0.9391840100288391 -0.33226799964904785 -0.724373996257782 -0.13468800485134125 -0.6761220097541809
          -0.3674589991569519 -0.13061100244522095 -0.9208229780197144 -0.5077750086784363 -0.17446200549602509 -0.8436390161514282
          0.8518199920654297 0.5236390233039856 0.014295999892055988 -0.8416770100593567 -0.5030999779701233 0.19614200294017792
          -0.694815993309021 -0.6622220277786255 0.2805210053920746 -0.7934529781341553 -0.6078580021858215 0.030671000480651855
          -0.6944320201873779 -0.5575349926948547 -0.45488300919532776 -0.47609901428222656 -0.4738999903202057 -0.740776002407074
          -0.5187699794769287 -0.3469749987125397 -0.7813360095024109 0.9783279895782471 -0.15953899919986725 0.1319890022277832
          -0.7988190054893494 -0.5505269765853882 -0.24250300228595734 0.8299239873886108 0.5031229853630066 -0.24102599918842316
          0.7388569712638855 0.6184229850769043 0.26766300201416016 0.7013300061225891 0.7100319862365723 0.06317300349473953
          0.6225529909133911 0.7710869908332825 -0.13361400365829468 0.7877529859542847 0.611329972743988 -0.07563400268554688
          0.8850880265235901 0.13682599365711212 -0.44485801458358765 0.9473310112953186 0.18164700269699097 0.26375898718833923
          0.9687110185623169 0.2376279979944229 0.07164300233125687 0.904932975769043 0.4107469916343689 -0.1112779974937439
          0.8837720155715942 0.46650099754333496 0.03639400005340576 0.8525689840316772 -0.3714959919452667 -0.3675830066204071
          0.9047459959983826 -0.3153260052204132 0.28636398911476135 0.9411290287971497 -0.32370901107788086 0.09740599989891052
          0.948710024356842 -0.290583997964859 -0.1245419979095459 0.9689000248908997 -0.24288100004196167 0.04733800143003464
          0.5460249781608582 -0.7875779867172241 0.28561800718307495 0.5737599730491638 -0.7939509749412537 0.20110300183296204
          0.534371018409729 -0.8406569957733154 -0.08799800276756287 0.5101919770240784 -0.8594740033149719 -0.03176499903202057
          -0.14386999607086182 -0.9441360235214233 0.2964940071105957 -0.12039700150489807 -0.9832770228385925 0.13663999736309052
          -0.047506000846624374 -0.9925010204315186 -0.11263100057840347 0.06759600341320038 -0.9934120178222656 -0.0925389975309372
          -0.7510910034179688 -0.5874990224838257 0.30117499828338623 -0.7222849726676941 -0.6892610192298889 0.056770000606775284
          -0.631866991519928 -0.7162610292434692 -0.2961669862270355 -0.5689359903335571 -0.8223819732666016 0.00033099998836405575
          -0.9606000185012817 -0.14629900455474854 0.2363159954547882 -0.9666420221328735 -0.2545279860496521 -0.028612999245524406
          -0.8576560020446777 -0.2648029923439026 -0.4408009946346283 -0.8904730081558228 -0.4247489869594574 -0.16323800384998322
          0.7100350260734558 -0.5086249709129333 -0.48698100447654724 0.6834290027618408 -0.238087996840477 -0.6901000142097473
          0.8163310289382935 0.20535600185394287 -0.5398449897766113 0.8462030291557312 0.3581550121307373 -0.3945460021495819
          0.6960729956626892 0.685778021812439 0.2125840038061142 0.8211789727210999 -0.17461200058460236 -0.543300986289978
          0.7860050201416016 0.03773000091314316 -0.6170679926872253 0.8164539933204651 -0.06025499850511551 -0.574258029460907
          0.7325779795646667 0.5102459788322449 -0.4505319893360138 0.962460994720459 -0.24214600026607513 -0.12261000275611877
          0.9852250218391418 -0.043928999453783035 0.16553400456905365 0.7041969895362854 0.558381974697113 -0.4385400116443634
          0.9307850003242493 0.3407529890537262 -0.13239100575447083 -0.46792298555374146 0.33673200011253357 0.8171039819717407
          -0.9990760087966919 -0.04283500090241432 0.0035699999425560236 -0.9448649883270264 -0.11121200025081635 -0.30799800157546997
          0.04704299941658974 0.48368600010871887 -0.8739759922027588 -0.9792129993438721 -0.18854400515556335 -0.07478699833154678
          -0.9568510055541992 -0.10392499715089798 0.27135801315307617 -0.8485260009765625 0.12108500301837921 0.5151140093803406
          -0.8373479843139648 -0.5039610266685486 0.21182900667190552 -0.8506569862365723 -0.40959200263023376 0.3295699954032898
          -0.7825319766998291 -0.26554998755455017 0.5631409883499146 -0.6403669714927673 0.008332000114023685 0.7680240273475647
          0.439316987991333 0.6120399832725525 0.6575769782066345 -0.6607739925384521 -0.7345560193061829 0.15428799390792847
          -0.5012739896774292 -0.6403049826622009 0.5820080041885376 -0.2513960003852844 -0.4968410134315491 0.8306319713592529
          -0.19607199728488922 -0.2901560068130493 0.9366779923439026 -0.03379900008440018 0.1604059934616089 0.9864720106124878
          -0.2694360017776489 -0.7719810009002686 0.5757169723510742 -0.053991999477148056 -0.5172730088233948 0.8541160225868225
          0.14847199618816376 -0.16810500621795654 0.9745240211486816 0.610069990158081 0.7248889803886414 0.31992098689079285
          0.40802499651908875 0.1702599972486496 0.8969539999961853 0.04695099964737892 -0.996399998664856 -0.07059299945831299
          0.6202390193939209 -0.7774209976196289 -0.10450500249862671 0.9755520224571228 -0.2070309966802597 -0.07373400032520294
          0.8729720115661621 0.4442239999771118 -0.20145800709724426 0.671891987323761 0.7305139899253845 -0.12210900336503983
          -0.21824100613594055 -0.9743480086326599 0.05493500083684921 0.3501709997653961 -0.9338210225105286 -0.07320299744606018
          0.8250830173492432 -0.5627750158309937 -0.05022500082850456 0.994193971157074 -0.08093400299549103 -0.07090499997138977
          0.9451040029525757 0.30737200379371643 -0.11090700328350067 0.6565319895744324 0.7443580031394958 -0.12205000221729279
          0.3231489956378937 0.9442499876022339 -0.06298500299453735 -0.07677199691534042 -0.876380980014801 0.4754610061645508
          0.3073970079421997 -0.6554170250892639 0.6898810267448425 0.6699720025062561 -0.2260729968547821 0.7071269750595093
          0.7348610162734985 0.2964800000190735 0.6099820137023926 0.5688570141792297 0.7136290073394775 0.40882301330566406
          -0.9813590049743652 0.19057899713516235 0.024786999449133873 0.6822789907455444 0.729358971118927 0.05031000077724457
          0.8722739815711975 0.4428209960460663 0.20747999846935272 0.9058619737625122 0.25499001145362854 0.3382219970226288
          0.9848729968070984 0.08491399884223938 0.15104199945926666 0.9929389953613281 0.1036899983882904 0.05762000009417534
          0.9419829845428467 0.21557499468326569 0.2572849988937378 0.9252660274505615 0.3780440092086792 -0.031069999560713768
          0.8199729919433594 0.5120670199394226 0.25579598546028137 0.6803420186042786 0.7092620134353638 0.18461300432682037
          0.5447970032691956 0.8259119987487793 -0.14514200389385223 0.548691987991333 0.8355879783630371 -0.027031000703573227
          0.8681390285491943 0.4962039887905121 -0.010761000216007233 0.8313720226287842 0.4339999854564667 -0.3470810055732727
          0.7501959800720215 0.6210500001907349 0.22694100439548492 0.9524949789047241 -0.041923001408576965 -0.30165499448776245
          0.9871090054512024 -0.0834370031952858 -0.13658200204372406 0.9796299934387207 -0.10483700037002563 -0.17127199470996857
          0.8930320143699646 0.2408909946680069 -0.3800869882106781 0.9110559821128845 0.16902799904346466 0.3760409951210022
          0.792382001876831 0.35187000036239624 0.4983159899711609 0.9516779780387878 0.10521899908781052 -0.2885090112686157
          0.9991430044174194 0.04135100170969963 0.00202700006775558 0.8089290261268616 0.001829999964684248 0.5879039764404297
          0.23920099437236786 0.15523800253868103 0.9584800004959106 -0.9796410202980042 -0.03859499841928482 0.19701099395751953
          -0.9572960138320923 -0.08481799811124802 -0.2763879895210266 -0.4061279892921448 0.09972500056028366 -0.9083579778671265
          0.619176983833313 0.17014800012111664 -0.7665960192680359 0.6577230095863342 0.10195799916982651 -0.7463279962539673
          0.9932109713554382 -0.028961999341845512 -0.11266099661588669 0.9550229907035828 0.010541999712586403 -0.2963460087776184
          0.9811009764671326 -0.00813200045377016 0.1933249980211258 0.9306520223617554 -0.06026500090956688 0.36090800166130066
          0.6068950295448303 0.00954500027000904 0.7947250008583069 0.4696730077266693 -0.05982999876141548 0.8808109760284424
          -0.4393639862537384 0.052685998380184174 0.896763026714325 -0.3322640061378479 0.0006350000039674342 0.9431859850883484
          -0.973363995552063 -0.016781000420451164 0.22864900529384613 -0.9114109873771667 0.035395000129938126 0.40997299551963806
          -0.9033610224723816 -0.030027000233530998 -0.42782801389694214 -0.8798589706420898 0.09010899811983109 -0.4666129946708679
          -0.05842300131917 0.06948699802160263 -0.9958710074424744 -0.12945400178432465 0.07641900330781937 -0.9886360168457031
          0.5254250168800354 0.037066999822854996 -0.8500319719314575 0.5374270081520081 0.03229700028896332 -0.8426920175552368
          0.7253479957580566 0.013743000105023384 -0.6882449984550476 0.8188980221748352 0.006957000121474266 -0.5738959908485413
          0.9325180053710938 -0.009304000064730644 -0.3610050082206726 0.9386339783668518 -0.08788400143384933 0.3335300087928772
          0.4883340001106262 -0.12945599853992462 0.8630009889602661 -0.10938800126314163 -0.10239599645137787 0.9887109994888306
          -0.7600280046463013 -0.039507001638412476 0.648688018321991 -0.9998679757118225 0.012121999636292458 0.010820000432431698
          -0.6194779872894287 0.050620000809431076 -0.7833799719810486 0.3520190119743347 0.04022999852895737 -0.9351279735565186
          0.8137419819831848 0.04189100116491318 -0.5797150135040283
          <InformationKey name="L2_NORM_RANGE" location="vtkDataArray" length="2">
            <Value index="0">
              0.99999931972
            </Value>
            <Value index="1">
              1.0000007312
            </Value>
          </InformationKey>
        </DataArray>
      </PointData>
      <CellData>
      </CellData>
      <Points>
        <DataArray type="Float32" Name="Points" NumberOfComponents="3" format="ascii" RangeMin="0.018187804011159433" RangeMax="0.3039572017877309">
          -0.003244000021368265 0.022144999355077744 -0.007029000204056501 -0.009188000112771988 0.02175699919462204 -0.0030539999715983868
          -0.01525100041180849 0.017942000180482864 -0.0036150000523775816 -0.0182109996676445 0.012891000136733055 -0.007792000193148851
          -0.016574999317526817 0.009246000088751316 -0.01357599999755621 -0.010928000323474407 0.009649000130593777 -0.017587000504136086
          -0.00408599991351366 0.014405000023543835 -0.017264999449253082 -0.0024270000867545605 0.01944899931550026 -0.01233499962836504
          -0.002747999969869852 0.022120999172329903 -0.0069690002128481865 0.0023529999889433384 0.0233559999614954 -0.0028029999230057
          -0.007155000232160091 0.022662999108433723 0.0038320000749081373 -0.017597999423742294 0.015852000564336777 0.002461999887600541
          -0.021309999749064445 0.008720999583601952 -0.004652000032365322 -0.017751000821590424 0.0028689999599009752 -0.014689000323414803
          -0.008702999912202358 0.003965999931097031 -0.020695000886917114 0.0012329999590292573 0.010929999873042107 -0.020080000162124634
          0.004970999900251627 0.0200399998575449 -0.011575999669730663 0.0027389999013394117 0.0234179999679327 -0.0026390000712126493
          0.008170000277459621 0.022453999146819115 0.0012710000155493617 -0.003992999903857708 0.021530000492930412 0.010592999868094921
          -0.01815599948167801 0.01235399954020977 0.008206999860703945 -0.022898999974131584 0.0024250000715255737 -0.002319999970495701
          -0.018076999112963676 -0.002901999978348613 -0.01425000000745058 -0.005921999923884869 -0.000901999999769032 -0.022249000146985054
          0.006587999872863293 0.004747999832034111 -0.02092600055038929 0.012040999718010426 0.01722699962556362 -0.009430999867618084
          0.008166000247001648 0.022207999601960182 0.002044999971985817 0.011548999696969986 0.02134699933230877 0.004581000190228224
          0.00043399998685345054 0.020121000707149506 0.014290999621152878 -0.017472999170422554 0.010115000419318676 0.010857000015676022
          -0.022445999085903168 -0.000707999977748841 0.001879999996162951 -0.017680000513792038 -0.007625999860465527 -0.011885000392794609
          -0.004087999928742647 -0.008183999918401241 -0.021088000386953354 0.011398999951779842 0.00041199999395757914 -0.0190459992736578
          0.01551899965852499 0.015314999967813492 -0.008919999934732914 0.012083999812602997 0.02080499939620495 0.005781000014394522
          0.015022999607026577 0.015432000160217285 0.008561000227928162 0.004267999902367592 0.017596999183297157 0.02078299969434738
          -0.009263000451028347 0.012481000274419785 0.017273999750614166 -0.014553000219166279 0.005098999943584204 0.012265999801456928
          -0.018456000834703445 -0.005989000201225281 0.001841000048443675 -0.014167999848723412 -0.010595999658107758 -0.0062339999713003635
          -0.0045449999161064625 -0.013628999702632427 -0.015277000144124031 0.012713000178337097 -0.003616000059992075 -0.013976000249385834
          0.020082000643014908 0.010297000408172607 -0.004428999964147806 0.015269000083208084 0.015821000561118126 0.009177000261843204
          0.016555000096559525 0.007919000461697578 0.010460999794304371 0.016959000378847122 0.011885000392794609 0.015337999910116196
          0.007395999971777201 0.012196999974548817 0.025325000286102295 -0.003283000085502863 0.008705000393092632 0.02637699991464615
          -0.013736999593675137 0.0016479999758303165 0.02250099927186966 -0.016766000539064407 -0.004062999971210957 0.016964999958872795
          -0.01260599959641695 -0.009844999760389328 0.008658000268042088 -0.00988100003451109 -0.016234999522566795 -0.002199999988079071
          -0.002202000003308058 -0.020116999745368958 -0.011343000456690788 0.013523999601602554 -0.010480999946594238 -0.0083619998767972
          0.021547000855207443 -0.004656000062823296 -0.00738399988040328 0.02514900080859661 0.0006169999833218753 -0.0017509999452158809
          0.025735000148415565 0.0033629999961704016 0.0036440000403672457 0.02401999942958355 0.006002999842166901 0.0071840002201497555
          -0.010937999933958054 0.015935000032186508 -0.012543999589979649 0.01218200009316206 -0.023823000490665436 0.005011000204831362
          0.011029000394046307 -0.041944000869989395 0.002472999971359968 0.012751000002026558 -0.042883001267910004 0.00785099994391203
          0.013496000319719315 -0.02543500065803528 0.011855999939143658 0.008526000194251537 -0.04197600111365318 0.012285999953746796
          0.010080000385642052 -0.027861999347805977 0.014965999871492386 -0.0007609999738633633 -0.042723000049591064 0.012072999961674213
          -0.0009549999958835542 -0.029565000906586647 0.014658999629318714 -0.007796000223606825 -0.04269799962639809 0.00522099994122982
          -0.005024999845772982 -0.028850000351667404 0.011904999613761902 -0.007637000177055597 -0.026900000870227814 0.003415999934077263
          -0.00824000034481287 -0.043255001306533813 0.001167000038549304 -0.007075999863445759 -0.026717999950051308 -0.0036510000936686993
          -0.0004959999932907522 -0.04191900044679642 -0.008139999583363533 -0.00029200001154094934 -0.025299999862909317 -0.009992999956011772
          0.008762000128626823 -0.042399998754262924 -0.007335000205785036 0.011699000373482704 -0.023893000558018684 -0.006029999814927578
          0.011455999687314034 -0.04213400185108185 -0.003657999914139509 0.013811999931931496 -0.024250999093055725 0.0005329999839887023
          0.011025999672710896 -0.041940998286008835 0.0024709999561309814 0.011295000091195107 -0.07093799859285355 0.0005939999828115106
          0.012628999538719654 -0.0731469988822937 0.007015000097453594 0.003746999893337488 -0.07129999995231628 0.010301000438630581
          -0.006409999914467335 -0.07124900072813034 0.005919000133872032 -0.007977999746799469 -0.0710889995098114 0.0014400000218302011
          -0.007102999836206436 -0.07095299661159515 -0.003237999975681305 -0.001930000027641654 -0.0695440024137497 -0.008766000159084797
          0.005247999913990498 -0.06982800364494324 -0.008194999769330025 0.010276000015437603 -0.07044800370931625 -0.004991999827325344
          0.01129399985074997 -0.07099000364542007 0.0005869999877177179 0.009460999630391598 -0.09686899930238724 -0.002658999990671873
          0.010546999983489513 -0.09929600358009338 0.005652999971061945 0.003011000109836459 -0.0961960032582283 0.00913699995726347
          -0.003478999948129058 -0.0962890014052391 0.00940600037574768 -0.007278000004589558 -0.09505099803209305 0.005450000055134296
          -0.00813900027424097 -0.0941379964351654 -0.0020779999904334545 -0.0027020000852644444 -0.09429699927568436 -0.011241000145673752
          0.004935000091791153 -0.09612900018692017 -0.010072999633848667 0.009449999779462814 -0.0968099981546402 -0.002643000101670623
          0.008569000288844109 -0.11948499828577042 -0.004240000154823065 0.009790999814867973 -0.11695999652147293 0.004989000037312508
          0.004834999796003103 -0.1174440011382103 0.008255000226199627 -0.0032659999560564756 -0.11692500114440918 0.008733999915421009
          -0.006328000221401453 -0.11751200258731842 0.0046430001966655254 -0.008821000345051289 -0.11729700118303299 -0.0038389998953789473
          -0.006297000218182802 -0.1175210028886795 -0.010623999871313572 0.0028750000055879354 -0.11882899701595306 -0.011928999796509743
          -0.005818000063300133 -0.02094000019133091 0.01488799974322319 -0.008856000378727913 -0.013016999699175358 0.018094999715685844
          -0.008527999743819237 -0.020831000059843063 0.004821000155061483 -0.009349999949336052 -0.01656699925661087 0.00662099989131093
          -0.007876000367105007 -0.022419000044465065 -0.00368599989451468 0.011849000118672848 -0.017700999975204468 -0.006517000030726194
          0.015308000147342682 -0.015891000628471375 -0.005226000212132931 0.0189059991389513 -0.009751999750733376 -0.005890999920666218
          0.020639000460505486 -0.007164000067859888 -0.0025289999321103096 0.021889999508857727 -0.0055320002138614655 0.001108999946154654
          0.02314699999988079 -0.0031320000998675823 0.004989999812096357 0.016394000500440598 -0.01534000039100647 -0.0023189999628812075
          0.017376000061631203 -0.014081999659538269 0.0017269999952986836 0.0163199994713068 -0.0026599999982863665 0.009929999709129333
          0.017201000824570656 -0.003260999917984009 0.017416000366210938 0.013915999792516232 -0.014015999622642994 0.007849999703466892
          0.0139979999512434 -0.016767999157309532 0.014427999965846539 0.006756999995559454 -0.0057299998588860035 0.024423999711871147
          -0.007993999868631363 -0.006661000195890665 0.024288000538945198 0.007660999894142151 -0.0185100007802248 0.018617000430822372
          -0.0007379999733529985 -0.019968999549746513 0.018285999074578285 0.00007300000288523734 -0.2825169861316681 -0.042840998619794846