<?xml version="1.0"?>
<VTKFile type="PolyData" version="0.1" byte_order="LittleEndian" header_type="UInt32" compressor="vtkZLibDataCompressor">
  <PolyData>
    <Piece NumberOfPoints="3558" NumberOfVerts="0" NumberOfLines="0" NumberOfStrips="0" NumberOfPolys="7126">
      <PointData Normals="Normals">
        <DataArray type="Float32" Name="Normals" NumberOfComponents="3" format="ascii" RangeMin="0.9999992707083549" RangeMax="1.0000007627996417">
          -0.99372798204422 0.11180400103330612 0.0022269999608397484 -0.9945189952850342 0.10149899870157242 -0.025116000324487686
          -0.9804180264472961 -0.05478199943900108 0.18915200233459473 -0.9827020168304443 0.031658999621868134 0.1824669986963272
          -0.9859730005264282 0.12838900089263916 -0.10664500296115875 -0.9798939824104309 0.13300399482250214 0.14872099459171295
          -0.9340559840202332 0.062279000878334045 0.35165300965309143 -0.9503629803657532 -0.15068499743938446 0.2722199857234955
          -0.9728249907493591 0.20640699565410614 -0.10491299629211426 -0.9961469769477844 0.05618000030517578 -0.0673459991812706
          -0.9644569754600525 -0.20626099407672882 0.16516399383544922 -0.9823690056800842 0.18447700142860413 -0.03032599948346615
          -0.806879997253418 -0.3691059947013855 0.4611999988555908 -0.9186509847640991 -0.16485799849033356 0.35903000831604004
          -0.905331015586853 -0.06310299783945084 0.4199939966201782 -0.9303399920463562 0.026373999193310738 0.3657490015029907
          -0.9875119924545288 0.15545600652694702 -0.02555599994957447 -0.9963679909706116 0.04885299876332283 0.06973899900913239
          -0.9934459924697876 0.0029009999707341194 -0.11426900327205658 -0.9775270223617554 0.11567900329828262 -0.17623700201511383
          -0.8290429711341858 0.060189999639987946 0.5559369921684265 -0.9161400198936462 0.05369799956679344 0.39724600315093994
          -0.7758389711380005 -0.05111100152134895 0.6288570165634155 -0.8157479763031006 -0.059133000671863556 0.5753769874572754
          -0.7057700157165527 -0.013337000273168087 0.7083150148391724 -0.8846089839935303 -0.3218280076980591 0.33748000860214233
          -0.9738829731941223 0.2230670005083084 0.04234199970960617 -0.9394140243530273 0.33025699853897095 -0.09182699769735336
          -0.9538189768791199 -0.23720499873161316 0.1842920035123825 -0.8003129959106445 -0.5268669724464417 0.2861979901790619
          -0.7149459719657898 -0.5760840177536011 0.39620599150657654 -0.9762250185012817 0.2133920043706894 0.038061000406742096
          -0.9926300048828125 0.04031100124120712 0.11427900195121765 -0.614749014377594 -0.4721589982509613 0.6317830085754395
          -0.3975149989128113 -0.725176990032196 0.5622280240058899 -0.7665989995002747 -0.23412799835205078 0.5979220271110535
          -0.76317298412323 -0.1346140056848526 0.6320170164108276 -0.8208510279655457 -0.044544000178575516 0.5694029927253723
          -0.9588199853897095 0.27635499835014343 -0.06551899760961533 -0.9439280033111572 0.20789800584316254 -0.25647199153900146
          -0.9974499940872192 -0.04917500168085098 0.05172000080347061 -0.9518120288848877 -0.03173200041055679 0.3050349950790405
          -0.9795460104942322 -0.08360400050878525 -0.18302999436855316 -0.9993860125541687 -0.03502900153398514 -0.000295000005280599
          -0.9787160158157349 -0.017020000144839287 -0.20451200008392334 -0.9735689759254456 0.059755001217126846 -0.22043800354003906
          -0.9547449946403503 0.09950599819421768 -0.2802869975566864 -0.7557079792022705 0.008709000423550606 0.6548510193824768
          -0.5487490296363831 -0.02476700022816658 0.8356199860572815 -0.8108980059623718 -0.02556600049138069 0.5846289992332458
          -0.5828210115432739 -0.16262699663639069 0.7961609959602356 -0.5813480019569397 -0.11339499801397324 0.805715024471283
          -0.5862799882888794 -0.20205800235271454 0.7845050096511841 -0.3531680107116699 -0.09782399982213974 0.9304320216178894
          -0.9569889903068542 0.2813659906387329 -0.07074899971485138 -0.5764560103416443 -0.6913620233535767 0.4355649948120117
          -0.8937299847602844 -0.25508201122283936 0.3690260052680969 -0.7059609889984131 -0.6448569893836975 0.2928810119628906
          -0.5572500228881836 -0.761231005191803 0.33166301250457764 -0.3658300042152405 -0.8191090226173401 0.4418469965457916
          -0.9915030002593994 0.12803399562835693 -0.022982999682426453 -0.9618560075759888 0.12654699385166168 0.24252499639987946
          -0.21275100111961365 -0.7285259962081909 0.6511430144309998 -0.3817479908466339 -0.5789480209350586 0.7204769849777222
          -0.5754150152206421 -0.3577730059623718 0.7354559898376465 -0.21368399262428284 -0.8477230072021484 0.48549601435661316
          -0.16971099376678467 -0.8151440024375916 0.5538390278816223 -0.9124919772148132 0.3147889971733093 -0.26128000020980835
          -0.9693679809570312 0.1241540014743805 -0.21192499995231628 -0.9729359745979309 0.1466509997844696 -0.17857199907302856
          -0.9560539722442627 0.27226799726486206 -0.10877200216054916 -0.9926609992980957 0.11638099700212479 -0.03284800052642822
          -0.8932639956474304 0.2874490022659302 -0.34561899304389954 -0.8721150159835815 0.21856699883937836 -0.4377709925174713
          -0.9561190009117126 -0.03330700099468231 0.29107800126075745 -0.8218100070953369 -0.01940000057220459 0.5694320201873779
          -0.9756249785423279 -0.1504649966955185 -0.1597370058298111 -0.966454029083252 -0.08875399827957153 -0.24101699888706207
          -0.9616649746894836 -0.14370299875736237 -0.2335589975118637 -0.9537330269813538 -0.16606399416923523 -0.2506310045719147
          -0.9908120036125183 -0.13173699378967285 -0.03062400035560131 -0.9969490170478821 -0.028673000633716583 0.0726030021905899
          -0.9589250087738037 0.012391000054776669 0.2833870053291321 -0.9466469883918762 -0.04899999871850014 -0.3185259997844696
          -0.9455530047416687 0.04548399895429611 -0.32227399945259094 -0.8939949870109558 0.13139300048351288 -0.42837899923324585
          -0.7928910255432129 0.16169799864292145 -0.5875179767608643 -0.8473280072212219 0.09352300316095352 -0.5227699875831604
          -0.5728260278701782 -0.017748000100255013 0.8194850087165833 -0.23060399293899536 -0.06304600089788437 0.971002995967865
          -0.60310298204422 -0.002887000096961856 0.7976580262184143 -0.4048750102519989 -0.21065300703048706 0.8897759914398193
          -0.40287598967552185 -0.15872499346733093 0.901386022567749 -0.4505870044231415 -0.38666200637817383 0.8046510219573975
          -0.3307049870491028 -0.28395000100135803 0.9000030159950256 -0.19502399861812592 -0.06962200254201889 0.9783239960670471
          -0.40488800406455994 -0.7766990065574646 0.4824970066547394 -0.05321099981665611 -0.8267480134963989 0.5600500106811523
          -0.10555499792098999 -0.9600629806518555 0.25910699367523193 -0.30816999077796936 -0.8773030042648315 0.36792901158332825
          -0.6464599967002869 -0.6737149953842163 0.3580450117588043 -0.8593670129776001 -0.44243699312210083 0.25639399886131287
          -0.9492040276527405 -0.10309900343418121 0.29729101061820984 -0.9858540296554565 -0.13648299872875214 0.09727899730205536
          -0.9966030120849609 0.0050860000774264336 0.0822020024061203 -0.25371700525283813 -0.7534369826316833 0.6065980195999146
          -0.37327900528907776 -0.7236080169677734 0.580564022064209 -0.33092600107192993 -0.6785100102424622 0.6558300256729126
          -0.1992339938879013 -0.5465959906578064 0.8133500218391418 -0.15632100403308868 -0.9515830278396606 0.2646769881248474
          -0.46700799465179443 -0.7564380168914795 0.45793598890304565 -0.9211220145225525 0.21947599947452545 -0.32150399684906006
          -0.8910930156707764 0.27905499935150146 -0.3578859865665436 -0.9283480048179626 -0.22004100680351257 -0.2995870113372803
          -0.8927069902420044 -0.42893099784851074 -0.13817399740219116 -0.966159999370575 -0.2018509954214096 -0.16059300303459167
          -0.9871029853820801 0.08955399692058563 -0.1326960027217865 -0.9915279746055603 -0.1296679973602295 0.007656999863684177
          -0.9615210294723511 -0.2405650019645691 0.1326889991760254 -0.861922025680542 0.25387901067733765 -0.4389039874076843
          -0.7827330231666565 0.17903199791908264 -0.5960509777069092 -0.7045530080795288 0.15997500717639923 -0.6913849711418152
          -0.6798149943351746 0.21203500032424927 -0.7020630240440369 -0.8145610094070435 0.024379000067710876 0.5795649886131287
          -0.6088190078735352 0.04155400022864342 0.7922199964523315 -0.9572970271110535 -0.2710059881210327 -0.10068699717521667
          -0.9015349745750427 -0.3600429892539978 -0.24000699818134308 -0.9580619931221008 -0.15301400423049927 -0.2422879934310913
          -0.9486860036849976 -0.15144699811935425 -0.27759599685668945 -0.9422320127487183 -0.1353369951248169 -0.3064019978046417
          -0.960669994354248 -0.05358099937438965 -0.272475004196167 -0.9337700009346008 -0.06041000038385391 -0.35273900628089905
          -0.9704620242118835 -0.2411710023880005 0.0063229999504983425 -0.9826250076293945 -0.012264999561011791 0.18519699573516846
          -0.9409189820289612 -0.2055400013923645 0.26911699771881104 -0.8691089749336243 0.10643400251865387 0.4830330014228821
          -0.801639974117279 0.086776003241539 0.5914750099182129 -0.8980540037155151 -0.009837999939918518 -0.4397749900817871
          -0.8202769756317139 0.021414000540971756 -0.5715659856796265 -0.9260560274124146 -0.13075199723243713 -0.35401201248168945
          -0.9416019916534424 -0.13774800300598145 -0.3072650134563446 -0.9267659783363342 -0.009557000361382961 -0.37551599740982056
          -0.9244959950447083 0.041005998849868774 -0.37898001074790955 -0.7525479793548584 0.18371999263763428 -0.6323909759521484
          -0.6898549795150757 0.17604699730873108 -0.7022160291671753 -0.8501750230789185 0.05568699911236763 -0.5235469937324524
          -0.8720939755439758 0.021040000021457672 -0.4888859987258911 -0.8416039943695068 0.04696299880743027 -0.5380489826202393
          -0.2885819971561432 -0.008357999846339226 0.9574189782142639 0.011439000256359577 -0.06604500114917755 0.997750997543335
          -0.3856019973754883 0.04306799918413162 0.9216600060462952 -0.08387000113725662 -0.4420369863510132 0.8930670022964478
          -0.24396799504756927 -0.157818004488945 0.9568560123443604 -0.3810409903526306 -0.07489699870347977 0.9215189814567566
          -0.27216100692749023 0.073294997215271 0.9594560265541077 0.0036750000435858965 0.023560000583529472 0.9997159838676453
          -0.28797999024391174 -0.9476590156555176 0.13787299394607544 0.3461349904537201 -0.9058390259742737 0.24422599375247955
          0.21437899768352509 -0.941195011138916 0.26114100217819214 0.13451899588108063 -0.7267850041389465 0.6735640168190002
          0.015737000852823257 -0.937807023525238 0.3468010127544403 -0.7576950192451477 -0.6481530070304871 0.07613000273704529
          -0.8999999761581421 -0.43586501479148865 0.004676000215113163 -0.4862549901008606 -0.6883320212364197 0.5382890105247498
          -0.0721689984202385 -0.6750100255012512 0.7342709898948669 -0.22759400308132172 -0.7456210255622864 0.6262990236282349
          -0.3967289924621582 -0.7875360250473022 0.47158700227737427 -0.02010500058531761 -0.5563520193099976 0.8307030200958252
          -0.2600240111351013 -0.9591760039329529 0.11121200025081635 -0.3563869893550873 -0.8155210018157959 0.4559760093688965
          -0.6013249754905701 -0.712369978427887 0.3618519902229309 -0.5410929918289185 -0.8009240031242371 0.25639599561691284
          -0.8946250081062317 0.2291959971189499 -0.3835560083389282 -0.8886250257492065 0.06295599788427353 -0.45429301261901855
          -0.9004740118980408 -0.11981000006198883 -0.41808199882507324 -0.7844780087471008 -0.016499999910593033 -0.619937002658844
          -0.8786489963531494 0.08351799845695496 -0.47010698914527893 -0.7015950083732605 -0.5111839771270752 -0.4964439868927002
          -0.5800359845161438 -0.7466800212860107 -0.3256179988384247 -0.44060200452804565 -0.8878880143165588 -0.13237899541854858
          -0.6181049942970276 0.09189700335264206 -0.7807049751281738 -0.5292680263519287 -0.07712399959564209 -0.8449419736862183
          -0.4981290102005005 -0.011258999817073345 -0.8670300245285034 -0.7075999975204468 0.0359559990465641 -0.7056980133056641
          -0.5701680183410645 0.10799799859523773 0.8143979907035828 -0.3418720066547394 0.1417199969291687 0.9289990067481995
          -0.9318140149116516 -0.34474700689315796 0.11345700174570084 -0.9695619940757751 -0.2034830003976822 0.1361760050058365
          -0.9414539933204651 -0.20047800242900848 -0.2710599899291992 -0.8915550112724304 -0.3019089996814728 -0.33761098980903625
          -0.9201430082321167 -0.1343729943037033 -0.36780598759651184 -0.9309629797935486 -0.3558279871940613 -0.08182399719953537
          -0.9328389763832092 -0.3505370020866394 -0.08327899873256683 0.2430880069732666 -0.7453789710998535 -0.6207399964332581
          -0.8988649845123291 -0.3198019862174988 -0.2996140122413635 -0.7633799910545349 -0.5553550124168396 -0.3298969864845276
          -0.9495959877967834 0.18736900389194489 -0.25131601095199585 -0.9532259702682495 -0.05363500118255615 -0.29746299982070923
          -0.9656909704208374 0.07561799883842468 -0.24844199419021606 -0.9184219837188721 0.1308560073375702 -0.37333300709724426
          -0.9314470291137695 0.04173799976706505 -0.36147400736808777 -0.8815039992332458 -0.04454699903726578 -0.4700709879398346
          -0.8941649794578552 0.13766799867153168 -0.42604801058769226 -0.819229006767273 0.12226399779319763 -0.5602819919586182
          -0.818231999874115 0.22518399357795715 -0.5289499759674072 -0.8937519788742065 -0.10705900192260742 0.4355989992618561
          -0.6177610158920288 0.12811799347400665 0.775858998298645 -0.7055609822273254 -0.12485100328922272 0.6975640058517456
          -0.3042910099029541 0.43904298543930054 0.8453689813613892 -0.2564130127429962 0.33960801362991333 0.9049410223960876
          -0.5767179727554321 0.253044992685318 0.7767660021781921 -0.9108260273933411 -0.03962700068950653 -0.41088399291038513
          -0.828574001789093 -0.1134829968214035 -0.5482580065727234 -0.7515779733657837 0.09679800271987915 -0.652504026889801
          -0.7800670266151428 0.010731999762356281 -0.6256030201911926 -0.7708340287208557 -0.06694699823856354 -0.633508026599884
          -0.6872169971466064 0.13511499762535095 -0.7137759923934937 -0.8139560222625732 0.0406000018119812 -0.5795050263404846
          -0.775288999080658 -0.13954900205135345 -0.6159980297088623 -0.7375699877738953 -0.05256300047039986 -0.673222005367279
          -0.7961030006408691 0.04988599941134453 -0.6031010150909424 -0.2068219929933548 0.06757400184869766 0.9760419726371765
          0.023442000150680542 -0.06241700053215027 0.9977750182151794 -0.13236400485038757 -0.13570499420166016 0.9818680286407471
          -0.2247219979763031 -0.048583000898361206 0.9732109904289246 0.06730200350284576 -0.5138599872589111 0.8552299737930298
          -0.004164999816566706 -0.4290359914302826 0.9032779932022095 -0.13482600450515747 -0.3014979958534241 0.9438859820365906
          -0.34415099024772644 -0.0600380003452301 0.9369930028915405 -0.43916699290275574 0.0947989970445633 0.8933899998664856
          -0.24350300431251526 0.20875799655914307 0.9471679925918579 -0.12854400277137756 0.20078499615192413 0.9711650013923645
          0.11842499673366547 -0.9929530024528503 0.004474999848753214 0.27895399928092957 -0.9584800004959106 0.05916000157594681
          0.5101839900016785 -0.8335080146789551 0.21207399666309357 0.805076003074646 -0.5774480104446411 0.13567200303077698
          0.8958219885826111 -0.44291600584983826 -0.036442000418901443 0.5971390008926392 -0.7434620261192322 0.3011470139026642
          0.6481559872627258 -0.749692976474762 0.13361899554729462 -0.18134599924087524 -0.8609499931335449 0.4752660095691681
          -0.09071999788284302 -0.820235013961792 0.564786970615387 0.11558300256729126 -0.5802819728851318 0.8061720132827759
          -0.38743001222610474 -0.8584219813346863 0.3361690044403076 -0.5909510254859924 -0.7750669717788696 0.22371600568294525
          0.005743999965488911 -0.868336021900177 -0.49594399333000183 -0.2903989851474762 -0.923429012298584 -0.2508929967880249
          0.10953400284051895 -0.8673679828643799 -0.4854640066623688 -0.5834879875183105 -0.8110030293464661 -0.04260699823498726
          -0.7746660113334656 -0.2614859938621521 -0.5757750272750854 -0.47277799248695374 -0.08994100242853165 -0.8765789866447449
          -0.39104801416397095 -0.4409399926662445 -0.8078699707984924 -0.5615959763526917 -0.39440399408340454 -0.7273619771003723
          -0.21295100450515747 -0.8722559809684753 -0.44025200605392456 -0.4040890038013458 -0.657384991645813 -0.6360480189323425
          -0.04861000180244446 -0.9782599806785583 -0.2016019970178604 -0.24217599630355835 -0.35850000381469727 -0.9015700221061707
          -0.23470300436019897 -0.400160014629364 -0.8858820199966431 -0.30754199624061584 -0.22383800148963928 -0.9248319864273071
          -0.5543400049209595 -0.1306609958410263 -0.8219699859619141 -0.3953990042209625 -0.23435400426387787 -0.888109028339386
          -0.6380299925804138 -0.10619000345468521 -0.7626540064811707 -0.21872299909591675 0.39625200629234314 0.89170902967453
          -0.24919399619102478 0.2575570046901703 0.9335770010948181 -0.9518679976463318 -0.2771260142326355 0.13095299899578094
          -0.7680680155754089 0.00229199999012053 0.6403639912605286 -0.8337879776954651 -0.2043129950761795 0.5128880143165588
          -0.9607899785041809 0.009045000188052654 -0.2771280109882355 -0.9037259817123413 -0.13679200410842896 -0.4056690037250519
          -0.9173650145530701 -0.24998900294303894 -0.3097530007362366 -0.8835219740867615 0.20373600721359253 -0.4217590093612671
          -0.9142299890518188 0.2830440104007721 -0.2899489998817444 -0.9082249999046326 -0.35965099930763245 -0.2139589935541153
          -0.9961339831352234 -0.08362799882888794 0.026889000087976456 -0.9682930111885071 -0.028277000412344933 0.248212993144989
          -0.9495909810066223 -0.14618100225925446 0.27732300758361816 -0.8837170004844666 -0.3367069959640503 -0.3250730037689209
          0.8048999905586243 -0.4701870083808899 -0.3620229959487915 0.9848309755325317 -0.12494000047445297 -0.12040700018405914
          -0.9225069880485535 0.2197750061750412 -0.3173010051250458 -0.6731380224227905 0.7253559827804565 -0.1440259963274002
          -0.73403000831604 0.6323689818382263 -0.24760699272155762 -0.8855019807815552 0.4128729999065399 -0.21312299370765686
          -0.8543480038642883 0.4267059862613678 -0.2966670095920563 -0.8593289852142334 0.41109299659729004 -0.3042289912700653
          -0.8881980180740356 0.2575789988040924 -0.38047099113464355 -0.792818009853363 0.09091299772262573 -0.6026390194892883
          -0.8250570297241211 0.34184399247169495 -0.44991400837898254 -0.710997998714447 0.23656100034713745 -0.6622099876403809
          -0.6324219703674316 0.37317800521850586 -0.6788079738616943 -0.6229580044746399 0.5228970050811768 -0.5818089842796326
          -0.4501819908618927 0.15518200397491455 0.8793489933013916 -0.3365980088710785 0.16226999461650848 0.9275619983673096
          0.10666199773550034 0.3941499888896942 0.9128360152244568 0.2850109934806824 0.503928005695343 0.8153679966926575
          -0.0003220000071451068 0.6850749850273132 0.7284719944000244 0.3971480131149292 0.6460769772529602 0.6518110036849976
          -0.6648600101470947 -0.22241799533367157 -0.7130860090255737 -0.6747350096702576 -0.14038099348545074 -0.724586009979248
          -0.5019009709358215 -0.26061999797821045 -0.8247259855270386 -0.7460409998893738 0.045444998890161514 -0.6643480062484741
          -0.5116890072822571 -0.006856000050902367 -0.8591430187225342 -0.6927670240402222 -0.04366200044751167 -0.7198389768600464
          -0.5478879809379578 0.06536400318145752 -0.8339939713478088 -0.550948977470398 -0.10216999799013138 -0.8282610177993774
          -0.5039119720458984 -0.13032600283622742 -0.8538669943809509 -0.701121985912323 0.13463400304317474 -0.7002149820327759
          -0.7138749957084656 0.09968200325965881 -0.6931419968605042 -0.6751580238342285 0.12950800359249115 -0.7262160181999207
          -0.7001649737358093 0.18529200553894043 -0.6895179748535156 -0.5110989809036255 -0.1892160028219223 -0.8384360074996948
          -0.4056580066680908 -0.27990201115608215 -0.8701130151748657 -0.6212199926376343 -0.3062700033187866 -0.7213079929351807
          -0.5879210233688354 -0.3347350060939789 -0.7364109754562378 -0.26644301414489746 0.05385499820113182 0.9623450040817261
          -0.07107699662446976 0.1626569926738739 0.9841189980506897 -0.30021798610687256 0.16678999364376068 0.939175009727478
          -0.48318201303482056 0.006324999965727329 0.8754969835281372 -0.4170190095901489 -0.10615599900484085 0.9026769995689392
          -0.4382469952106476 -0.15659199655056 0.8851100206375122 -0.44055500626564026 -0.22765499353408813 0.8683800101280212
          -0.23256300389766693 -0.018943000584840775 0.9723970293998718 -0.3378030061721802 0.01295899972319603 0.9411280155181885
          0.19012899696826935 -0.4730130136013031 0.8602960109710693 0.09510300308465958 -0.43466898798942566 0.8955550193786621
          0.005876000039279461 -0.24844400584697723 0.968629002571106 -0.2750610113143921 -0.10889600217342377 0.95524001121521
          -0.47748100757598877 0.047322001308202744 0.8773670196533203 -0.5639359951019287 0.11766599863767624 0.8173930048942566
          -0.5084540247917175 0.267084002494812 0.8186219930648804 -0.5818970203399658 0.32629698514938354 0.7449340224266052
          0.3760730028152466 -0.9176669716835022 0.12828299403190613 0.30795401334762573 -0.9500889778137207 -0.04995200037956238
          0.5498719811439514 -0.7805650234222412 0.2972530126571655 0.696681022644043 -0.5769429802894592 0.4263469874858856
          0.558243989944458 -0.7504780292510986 0.3537600040435791 0.229653000831604 -0.860791027545929 0.45419999957084656
          0.8392639756202698 -0.5326740145683289 0.10906700044870377 0.20850400626659393 -0.9657019972801208 -0.1547439992427826
          -0.2195190042257309 -0.9269559979438782 0.3042429983615875 -0.24361099302768707 -0.9137060046195984 0.3252600133419037
          -0.11999700218439102 -0.9148510098457336 0.38554900884628296 -0.11436200141906738 -0.924839973449707 0.36275699734687805
          -0.03730100020766258 -0.774878978729248 0.6310080289840698 0.14706499874591827 -0.6423299908638 0.7521860003471375
          0.266092985868454 -0.4951150119304657 0.8270769715309143 0.19508999586105347 -0.5095440149307251 0.8380360007286072
          -0.479418009519577 -0.8578540086746216 0.18505500257015228 0.09892000257968903 -0.7364979982376099 -0.6691669821739197
          0.38913899660110474 -0.881676971912384 -0.26686400175094604 0.012420999817550182 -0.9614059925079346 -0.27485498785972595
          -0.3153110146522522 -0.7157049775123596 -0.6231740117073059 -0.7045140266418457 -0.5852659940719604 -0.40140300989151
          -0.5437340140342712 -0.8391469717025757 0.013655999675393105 0.011025999672710896 -0.7273560166358948 -0.6861720085144043
          -0.07788299769163132 -0.7112370133399963 -0.6986240148544312 0.22195099294185638 -0.9272980093955994 -0.3014239966869354
          0.1539040058851242 -0.8440240025520325 -0.5137479901313782 -0.05626000091433525 -0.6823030114173889 -0.7289010286331177
          -0.16166600584983826 -0.513899028301239 -0.8424800038337708 -0.2700119912624359 -0.38980400562286377 -0.8804240226745605
          -0.3969630002975464 -0.3301590085029602 -0.8563969731330872 -0.32415199279785156 -0.4378669857978821 -0.8385689854621887
          0.027816999703645706 0.8193759918212891 0.5725809931755066 -0.21295000612735748 0.618556022644043 0.7563329935073853
          -0.6331890225410461 0.3744199872016907 0.67740797996521 -0.7211059927940369 0.17498600482940674 0.6703630089759827
          -0.21738199889659882 0.33444300293922424 0.9170020222663879 -0.8956090211868286 0.2707799971103668 -0.35293400287628174
          -0.9753109812736511 0.0345040000975132 -0.21812300384044647 -0.9794989824295044 -0.10807300359010696 -0.17000800371170044
          -0.5703709721565247 0.8015850186347961 -0.17926999926567078 -0.7530310153961182 0.6264600157737732 -0.20122499763965607
          -0.9845589995384216 -0.1210630014538765 -0.1264439970254898 -0.925242006778717 0.30382901430130005 0.2271910011768341
          -0.9078540205955505 0.23470400273799896 0.3474409878253937 -0.6937659978866577 0.2854349911212921 0.6612229943275452
          -0.016865000128746033 0.9941890239715576 -0.1063150018453598 -0.4418469965457916 0.8958799839019775 0.04657699912786484
          0.0755549967288971 0.9901149868965149 0.11817000061273575 -0.603767991065979 0.7971100211143494 -0.008949000388383865
          -0.10764899849891663 0.9936599731445312 0.03241400048136711 -0.7755460143089294 0.6250889897346497 -0.08827900141477585
          -0.8192409873008728 0.45829999446868896 -0.3446820080280304 -0.6985859870910645 0.6837700009346008 -0.21080000698566437
          -0.6613039970397949 0.2536120116710663 -0.7059450149536133 -0.6673280000686646 0.6205999851226807 -0.4117389917373657
          -0.5326579809188843 0.4093480110168457 -0.7407490015029907 -0.3298009932041168 0.6367319822311401 -0.6969959735870361
          -0.4654169976711273 0.718093991279602 -0.517425000667572 0.19268900156021118 0.26725199818611145 0.9441649913787842
          0.2861289978027344 0.3884289860725403 0.8759300112724304 0.6533340215682983 0.3492330014705658 0.6717079877853394
          0.5121170282363892 0.5098839998245239 0.6911969780921936 0.49246901273727417 0.8332849740982056 0.25121599435806274
          0.7066019773483276 0.4777570068836212 0.5219789743423462 0.6419259905815125 0.4279389977455139 0.6362379789352417
          -0.42438799142837524 -0.3539830148220062 -0.833420991897583 -0.3582080006599426 -0.31579598784446716 -0.8786129951477051
          -0.18824699521064758 -0.2101770043373108 -0.9593690037727356 -0.20072400569915771 -0.3094179928302765 -0.9294999837875366
          -0.39522498846054077 0.1108430027961731 -0.9118720293045044 -0.6248379945755005 0.053654998540878296 -0.7789090275764465
          -0.2013469934463501 -0.09195899963378906 -0.975193977355957 -0.2612830102443695 -0.0025629999581724405 -0.9652590155601501
          -0.24344100058078766 0.062091000378131866 -0.967926025390625 -0.5482630133628845 0.20608800649642944 -0.8105159997940063
          -0.48006999492645264 0.29698899388313293 -0.8254269957542419 -0.5046499967575073 0.16216300427913666 -0.8479580283164978
          -0.4196600019931793 0.2553049921989441 -0.8710370063781738 -0.4469220042228699 0.4043389856815338 -0.7979789972305298
          -0.20939600467681885 -0.3184320032596588 -0.9245290160179138 -0.022513000294566154 -0.4377569854259491 -0.8988109827041626
          -0.2085620015859604 -0.48423299193382263 -0.8497179746627808 -0.3853510022163391 -0.41668498516082764 -0.8233330249786377
          0.5748990178108215 0.03513000160455704 0.8174700140953064 0.9428099989891052 0.07468000054359436 0.32485800981521606
          -0.10003100335597992 0.1354690045118332 0.9857190251350403 -0.3288699984550476 0.16287599503993988 0.9302229881286621
          -0.25627100467681885 0.32822099328041077 0.9091730117797852 -0.521344006061554 0.3512380123138428 0.7777100205421448
          -0.402675986289978 0.454461008310318 0.7945550084114075 -0.66143798828125 0.02281999960541725 0.7496529817581177
          -0.7341970205307007 0.14089199900627136 0.664156973361969 -0.4313890039920807 -0.10211600363254547 0.8963680267333984
          -0.5493630170822144 -0.10825899988412857 0.8285409808158875 -0.6092320084571838 -0.12283100187778473 0.7834219932556152
          -0.46490201354026794 0.019272999837994576 0.8851519823074341 0.5655199885368347 0.08489999920129776 0.8203529715538025
          0.2574320137500763 -0.4504440128803253 0.854885995388031 0.20216800272464752 -0.33207499980926514 0.9213330149650574
          0.18993699550628662 -0.31286299228668213 0.9306129813194275 0.14185599982738495 -0.18987500667572021 0.9715059995651245
          -0.01536600012332201 -0.17048600316047668 0.9852399826049805 -0.19534599781036377 -0.09229099750518799 0.9763820171356201
          -0.5661849975585938 0.10042300075292587 0.8181380033493042 -0.5543950200080872 -0.04378199949860573 0.8311020135879517
          -0.6251929998397827 0.014915999956429005 0.7803279757499695 0.2481749951839447 -0.9686030149459839 0.014759999699890614
          0.19442899525165558 -0.8714579939842224 0.45028799772262573 0.36388200521469116 -0.8856890201568604 -0.288349986076355
          -0.11851900070905685 -0.8595939874649048 0.4970420002937317 -0.1332390010356903 -0.7477250099182129 0.6505039930343628
          -0.07360699772834778 -0.9799079895019531 0.185372993350029 -0.2549839913845062 -0.9295340180397034 0.2663640081882477
          -0.5279250144958496 -0.8486559987068176 0.03283600136637688 -0.06224200129508972 -0.9823189973831177 0.17656299471855164
          -0.286081999540329 -0.9526469707489014 0.10305800288915634 -0.2783859968185425 -0.9597799777984619 0.03639199957251549
          -0.13164900243282318 -0.9774379730224609 0.16517700254917145 0.06155800074338913 -0.831138014793396 0.5526490211486816
          -0.1122789978981018 -0.9626299738883972 0.24644899368286133 -0.07842300087213516 -0.968982994556427 0.23435500264167786
          0.3108150064945221 -0.6218119859695435 0.7188479900360107 0.47290900349617004 -0.5013939738273621 0.7245420217514038