<?xml version="1.0"?>
<VTKFile type="PolyData" version="0.1" byte_order="LittleEndian" header_type="UInt32" compressor="vtkZLibDataCompressor">
  <PolyData>
    <Piece NumberOfPoints="806" NumberOfVerts="0" NumberOfLines="0" NumberOfStrips="0" NumberOfPolys="1608">
      <PointData Normals="Normals">
        <DataArray type="Float32" Name="Normals" NumberOfComponents="3" format="ascii" RangeMin="0.9999993434363782" RangeMax="1.000000744681943">
          0.47229599952697754 -0.041046999394893646 -0.8804839849472046 0.4630979895591736 -0.039326999336481094 -0.8854339718818665
          0.30625900626182556 -0.018851999193429947 -0.9517620205879211 0.03795899823307991 -0.053888000547885895 -0.997825026512146
          0.9114480018615723 -0.013141999952495098 -0.411204993724823 0.8402739763259888 -0.049065001308918 -0.5399379730224609
          0.26076799631118774 -0.0494920015335083 -0.9641320109367371 0.6449300050735474 -0.04311100021004677 -0.7630249857902527
          -0.030038999393582344 -0.006419000215828419 -0.9995279908180237 -0.02865999937057495 -0.02836799994111061 -0.9991869926452637
          0.11166200041770935 0.023468999192118645 -0.9934689998626709 0.5423970222473145 -0.023638000711798668 -0.8397889733314514
          0.4532400071620941 0.066382996737957 -0.8889129757881165 -0.08497799932956696 -0.05274999886751175 -0.9949849843978882
          0.4273209869861603 -0.05850899964570999 -0.9022049903869629 0.12567800283432007 -0.07668899744749069 -0.9891030192375183
          0.09088800102472305 -0.0713450014591217 -0.9933019876480103 0.11462199687957764 -0.016721999272704124 -0.9932680130004883
          0.9123539924621582 -0.033514998853206635 -0.4080289900302887 0.6884170174598694 -0.035913001745939255 -0.7244259715080261
          0.710877001285553 0.008651000447571278 -0.7032639980316162 0.7026309967041016 0.008557000197470188 -0.7115030288696289
          0.5603060126304626 -0.058462001383304596 -0.8262199759483337 -0.21083000302314758 -0.06783299893140793 -0.9751669764518738
          -0.19639399647712708 -0.05172799900174141 -0.9791600108146667 0.02329999953508377 0.0012890000361949205 -0.9997280240058899
          0.30873599648475647 0.06588499993085861 -0.9488630294799805 0.5976870059967041 0.06852400302886963 -0.7987959980964661
          0.6191350221633911 0.1149199977517128 -0.7768300175666809 -0.07902999967336655 -0.08317700028419495 -0.993395984172821
          -0.08715099841356277 -0.056026000529527664 -0.9946179986000061 -0.18267899751663208 -0.09752800315618515 -0.9783229827880859
          0.8421170115470886 0.015709999948740005 -0.5390660166740417 0.6916429996490479 0.015596999786794186 -0.7220709919929504
          0.37217700481414795 -0.017642000690102577 -0.9279940128326416 0.5638930201530457 -0.07451199740171432 -0.8224790096282959
          0.948186993598938 -0.021757999435067177 -0.3169659972190857 0.050390999764204025 0.1192300021648407 -0.9915869832038879
          0.8256570100784302 -0.03551499918103218 -0.5630530118942261 -0.004573000129312277 0.02559500001370907 -0.9996619820594788
          0.039413999766111374 0.26214998960494995 -0.9642220139503479 0.8304380178451538 -0.0058189998380839825 -0.5570809841156006
          0.7538319826126099 -0.028714999556541443 -0.656440019607544 0.7421730160713196 0.08709599822759628 -0.6645249724388123
          0.9311310052871704 0.025846000760793686 -0.36376699805259705 0.9129670262336731 0.06498999893665314 -0.4028260111808777
          -0.36492401361465454 -0.11953400075435638 -0.9233319759368896 -0.33340001106262207 -0.14499500393867493 -0.93156898021698
          -0.3168169856071472 -0.07169199734926224 -0.9457730054855347 -0.4880340099334717 -0.15185600519180298 -0.859512984752655
          -0.21096700429916382 -0.06419999897480011 -0.9753829836845398 -0.3592039942741394 -0.1024169996380806 -0.9276220202445984
          -0.005489000119268894 -0.021375000476837158 -0.9997569918632507 -0.3852219879627228 -0.10557200014591217 -0.9167649745941162
          0.3019779920578003 -0.026117000728845596 -0.9529569745063782 0.6289129853248596 0.04484900087118149 -0.7761809825897217
          0.05688999965786934 -0.012648000381886959 -0.9983000159263611 0.8462120294570923 0.053054001182317734 -0.5301989912986755
          -0.21787500381469727 -0.13789600133895874 -0.966185986995697 -0.17327100038528442 -0.09274300187826157 -0.9804980158805847
          -0.09201899915933609 -0.02247999981045723 -0.9955030083656311 -0.2280620038509369 0.04380999878048897 -0.9726600050926208
          -0.3337070047855377 -0.17493000626564026 -0.9263039827346802 0.9172160029411316 0.08025000244379044 -0.39022499322891235
          0.9488250017166138 0.039101000875234604 -0.31337299942970276 0.9939249753952026 -0.0007319999858736992 -0.11005599796772003
          0.9709410071372986 -0.01421700045466423 -0.23889799416065216 0.8002880215644836 0.14894099533557892 -0.5808230042457581
          0.430061012506485 0.1802770048379898 -0.8846179842948914 0.17756199836730957 -0.005154999904334545 -0.9840959906578064
          0.087288998067379 0.3439770042896271 -0.9349120259284973 -0.09493400156497955 0.16049499809741974 -0.9824609756469727
          0.2664709985256195 0.5168830156326294 -0.81352698802948 0.13495400547981262 0.5946969985961914 -0.7925419807434082
          -0.0017719999887049198 0.4249120056629181 -0.9052330255508423 0.9295579791069031 0.03891000151634216 -0.36661699414253235
          0.9218990206718445 0.03553900122642517 -0.3857960104942322 0.9823780059814453 0.09495200216770172 -0.16098900139331818
          0.9916110038757324 0.04698599874973297 -0.12041299790143967 0.9910709857940674 0.07191599905490875 -0.11227399855852127
          -0.45794400572776794 -0.18111799657344818 -0.8703359961509705 -0.6612799763679504 -0.23567700386047363 -0.7121559977531433
          -0.565671980381012 -0.21907199919223785 -0.7949990034103394 -0.7108079791069031 -0.18862700462341309 -0.6776220202445984
          -0.5320249795913696 -0.12609200179576874 -0.8372870087623596 -0.4693950116634369 -0.1323709934949875 -0.873009979724884
          -0.17331400513648987 -0.03510100021958351 -0.9842410087585449 -0.08564499765634537 -0.04124400019645691 -0.9954720139503479
          -0.3727779984474182 -0.09336499869823456 -0.9232119917869568 0.5675470232963562 0.02644200064241886 -0.8229159712791443
          0.20347300171852112 -0.018943000584840775 -0.978896975517273 0.8274919986724854 0.07143799960613251 -0.5569149851799011
          0.9361510276794434 0.015870999544858932 -0.35124099254608154 0.9946579933166504 -0.001690999954007566 -0.10321000218391418
          -0.39819198846817017 -0.2105409950017929 -0.8928130269050598 -0.30290499329566956 -0.1643040031194687 -0.9387509822845459
          -0.4640980064868927 -0.14756999909877777 -0.8734049797058105 -0.5347909927368164 0.07769600301980972 -0.8414049744606018
          -0.19481900334358215 0.4232560098171234 -0.8848170042037964 -0.26721200346946716 0.21894100308418274 -0.938435971736908
          0.9866089820861816 0.05724199861288071 -0.15272599458694458 0.9844189882278442 0.08515000343322754 -0.15384399890899658
          0.9356160163879395 0.14940300583839417 -0.31984400749206543 0.9852960109710693 0.0682620033621788 -0.15662799775600433
          0.8887270092964172 0.2842549979686737 -0.3596709966659546 0.6906700134277344 0.3559570014476776 -0.6294990181922913
          0.44596800208091736 0.3421199917793274 -0.8270829916000366 -0.20955799520015717 0.41996198892593384 -0.8830159902572632
          0.22384299337863922 0.7011250257492065 -0.6769919991493225 0.6077880263328552 0.5286840200424194 -0.5925260186195374
          -0.01608699932694435 0.6709830164909363 -0.7412980198860168 0.22048699855804443 0.8361949920654297 -0.502157986164093
          -0.0016349999932572246 0.8470939993858337 -0.531440019607544 -0.22341099381446838 0.6991900205612183 -0.6791319847106934
          -0.2441830039024353 0.773635983467102 -0.5846899747848511 0.987650990486145 0.01992899924516678 0.15539799630641937
          0.9890249967575073 0.12526200711727142 -0.07834800332784653 0.9888399839401245 0.14822599291801453 -0.01498199999332428
          0.9441620111465454 0.009948000311851501 0.32933199405670166 0.8848230242729187 -0.07174599915742874 0.4603689908981323
          0.9465720057487488 0.002216000109910965 0.322486013174057 0.9897840023040771 0.0737290009856224 0.12203100323677063
          0.9834340214729309 0.0592150017619133 0.17132200300693512 -0.6790860295295715 -0.308788001537323 -0.6659520268440247
          -0.7436280250549316 -0.24339599907398224 -0.6227160096168518 -0.7925689816474915 -0.2894339859485626 -0.5367140173912048
          -0.5430430173873901 -0.2580550014972687 -0.7990700006484985 -0.5876039862632751 -0.14376799762248993 -0.7962740063667297
          -0.7090499997138977 -0.18803200125694275 -0.679627001285553 -0.823511004447937 -0.20008599758148193 -0.53084397315979
          -0.8775249719619751 -0.2492700070142746 -0.4096530079841614 -0.8176259994506836 -0.2706240117549896 -0.508184015750885
          -0.5160639882087708 -0.19946900010108948 -0.8330010175704956 -0.6374170184135437 -0.17392100393772125 -0.7506340146064758
          -0.2003909945487976 -0.023135999217629433 -0.9794430136680603 0.02870200015604496 0.02292799949645996 -0.9993249773979187
          -0.37082600593566895 -0.07369299978017807 -0.9257739782333374 0.7955660223960876 0.25707000494003296 -0.5486260056495667
          0.3890030086040497 0.11225300282239914 -0.9143720269203186 0.9680280089378357 0.13270899653434753 -0.2128629982471466
          0.9983369708061218 0.004397999960929155 0.057482000440359116 0.9390509724617004 -0.0445609986782074 0.3408769965171814
          -0.4880349934101105 -0.2686930000782013 -0.8304370045661926 -0.527649998664856 -0.1678979992866516 -0.8327040076255798
          -0.6821460127830505 0.08705800026655197 -0.7260149717330933 -0.568805992603302 0.3461419939994812 -0.7460870146751404
          -0.3846859931945801 0.3808029890060425 -0.8408359885215759 -0.2817769944667816 0.6702960133552551 -0.6865170001983643
          -0.19985799491405487 0.8755769729614258 -0.4397970139980316 -0.4099160134792328 0.5472949743270874 -0.729682981967926
          0.9669899940490723 0.07590500265359879 0.24324500560760498 0.9868410229682922 0.036674998700618744 0.15748199820518494
          0.9919559955596924 0.02455100044608116 0.12417799979448318 0.9778810143470764 0.2010509967803955 -0.05768100172281265
          0.9940890073776245 0.0878629982471466 0.0637660026550293 0.8922160267829895 0.43577098846435547 -0.11855100095272064
          0.800320029258728 0.5124610066413879 -0.311242014169693 0.35362499952316284 0.7023559808731079 -0.617775022983551
          0.5678989887237549 0.6826180219650269 -0.45991700887680054 -0.21233299374580383 0.8827700018882751 -0.41908499598503113
          -0.13750100135803223 0.9623439908027649 -0.23449300229549408 0.5570170283317566 0.8060619831085205 -0.19999100267887115
          -0.28510600328445435 0.9362339973449707 -0.20538100600242615 -0.3171769976615906 0.9316539764404297 -0.17725799977779388
          0.8100569844245911 -0.0774879977107048 0.5812079906463623 0.8233569860458374 -0.059140998870134354 0.5644339919090271
          0.7747740149497986 -0.03884299844503403 0.631043016910553 0.7535039782524109 -0.06324300169944763 0.6543939709663391
          0.7538520097732544 -0.05389599874615669 0.6548299789428711 0.8932719826698303 0.04995099827647209 0.4467320144176483
          -0.7709299921989441 -0.36979299783706665 -0.5185750126838684 -0.7059810161590576 -0.322270005941391 -0.6306610107421875
          -0.5687350034713745 -0.30094799399375916 -0.765487015247345 -0.8096060156822205 -0.3419240117073059 -0.47710201144218445
          -0.8000310063362122 -0.37826600670814514 -0.4656890034675598 -0.8867160081863403 -0.3358609974384308 -0.3176969885826111
          -0.901423990726471 -0.2736639976501465 -0.33547499775886536 -0.7941550016403198 -0.22835999727249146 -0.5631780028343201
          -0.8432829976081848 -0.2358659952878952 -0.48295000195503235 -0.8589590191841125 -0.2317579984664917 -0.45659300684928894
          -0.9116790294647217 -0.23822300136089325 -0.33480098843574524 -0.9100850224494934 -0.24493199586868286 -0.33429500460624695
          -0.9418399930000305 -0.2954390048980713 -0.1601639986038208 -0.4278079867362976 -0.2264689952135086 -0.8750380277633667
          -0.5509849786758423 -0.2631720006465912 -0.7919319868087769 -0.7260739803314209 -0.21561700105667114 -0.6529369950294495
          -0.794651985168457 -0.22684000432491302 -0.563090980052948 0.020741000771522522 0.15785500407218933 -0.9872440099716187
          -0.43974798917770386 0.08121299743652344 -0.8944420218467712 0.7996309995651245 0.41975700855255127 -0.42941200733184814
          0.5350549817085266 0.2806810140609741 -0.7968279719352722 0.9203109741210938 0.3893679976463318 -0.037689998745918274
          0.9696639776229858 0.2392670065164566 0.050032999366521835 0.9155330061912537 -0.0270370002835989 0.4013330042362213
          0.9220600128173828 0.1614619940519333 0.35176199674606323 0.931315004825592 -0.09537799656391144 0.35150399804115295
          0.8221480250358582 -0.06015399843454361 0.5660859942436218 -0.5238350033760071 -0.30302101373672485 -0.7961000204086304
          -0.6452469825744629 -0.3183099925518036 -0.6945030093193054 -0.6505230069160461 -0.27194398641586304 -0.7091310024261475
          -0.6922280192375183 -0.17086899280548096 -0.7011590003967285 -0.8390780091285706 -0.05898800119757652 -0.5408030152320862
          -0.8435260057449341 0.17384399473667145 -0.5081760287284851 -0.6639479994773865 0.44495999813079834 -0.6009849905967712
          -0.5494080185890198 0.6161159873008728 -0.5644040107727051 -0.24245800077915192 0.9123950004577637 -0.3297730088233948
          -0.43066999316215515 0.7063549757003784 -0.5617709755897522 -0.20414799451828003 0.973537027835846 0.10270799696445465
          0.05355599895119667 0.9913219809532166 0.12004999816417694 0.9018480181694031 0.013403000310063362 0.4318450093269348
          0.8135679960250854 0.015963999554514885 0.5812510251998901 0.9499350190162659 0.05490100011229515 0.30758601427078247
          0.9626929759979248 0.1263210028409958 0.23930299282073975 0.912227988243103 0.3287380039691925 0.24448099732398987
          0.8051220178604126 0.5912889838218689 0.04643300175666809 -0.3759180009365082 0.9266359806060791 0.005628000013530254
          -0.4543600082397461 0.8895900249481201 -0.04675599932670593 -0.4825890064239502 0.8557199835777283 -0.18668599426746368
          0.20633099973201752 0.972445011138916 -0.1085290014743805 -0.15719200670719147 0.9741140007972717 -0.16245900094509125
          -0.4256089925765991 0.8693230152130127 -0.2512660026550293 0.4073280096054077 0.9037280082702637 -0.13175399601459503
          0.6234570145606995 0.7781220078468323 0.07633800059556961 0.7144100069999695 -0.03714099898934364 0.6987410187721252
          0.8163229823112488 0.025474000722169876 0.5770329833030701 0.7649800181388855 -0.0538490004837513 0.6417989730834961
          0.8091049790382385 -0.011952999979257584 0.5875419974327087 0.7764170169830322 -0.05846799910068512 0.6275020241737366
          0.7541750073432922 -0.04463599994778633 0.6551550030708313 -0.8315799832344055 -0.2676190137863159 -0.48667800426483154
          -0.8636940121650696 -0.3575170040130615 -0.3552660048007965 -0.8699219822883606 -0.3867950141429901 -0.30598199367523193
          -0.9147170186042786 -0.3641349971294403 -0.17521199584007263 -0.8971580266952515 -0.2573620080947876 -0.3589879870414734
          -0.9173840284347534 -0.2506830096244812 -0.30913400650024414 -0.9446820020675659 -0.2669200003147125 -0.19060300290584564
          -0.9454789757728577 -0.3254599869251251 -0.012098000384867191 -0.920490026473999 -0.38292500376701355 0.07788699865341187
          -0.9325730204582214 -0.3547010123729706 -0.06703899800777435 -0.616133987903595 -0.1708730012178421 -0.7688829898834229
          0.9474419951438904 -0.09703899919986725 -0.30485498905181885 0.40873000025749207 -0.26034799218177795 -0.8747329711914062
          0.7462779879570007 -0.2439509928226471 -0.6193199753761292 -0.6672499775886536 -0.28972798585891724 -0.6861749887466431
          -0.75136399269104 -0.2504810094833374 -0.6105009913444519 -0.8670250177383423 -0.2372869998216629 -0.4381360113620758
          0.5166760087013245 0.3666839897632599 -0.7736859917640686 0.14405100047588348 0.3260830044746399 -0.9343019723892212
          -0.14793600142002106 0.24144700169563293 -0.9590719938278198 -0.17737500369548798 0.23962999880313873 -0.9545239806175232
          -0.5896049737930298 0.08716099709272385 -0.8029749989509583 -0.6514179706573486 -0.044071000069379807 -0.7574380040168762
          0.8540099859237671 0.4804709851741791 -0.19953800737857819 0.8715270161628723 0.48774200677871704 -0.0504859983921051
          0.8738300204277039 0.3845840096473694 0.29751500487327576 0.9111549854278564 0.29016101360321045 0.2925789952278137
          0.8491179943084717 0.09643299877643585 0.5193259716033936 0.8456159830093384 0.16024699807167053 0.5091710090637207
          0.8717769980430603 0.21553100645542145 0.43994399905204773 -0.9134290218353271 0.03901800140738487 -0.4051240086555481
          -0.9589149951934814 -0.0589900016784668 -0.2774930000305176 -0.7542129755020142 0.44641900062561035 -0.4815309941768646
          -0.943576991558075 0.16099299490451813 -0.28938600420951843 -0.8721780180931091 0.3901439905166626 -0.29511600732803345
          -0.6892340183258057 0.6197749972343445 -0.3752790093421936 -0.6249039769172668 0.6348980069160461 -0.4543130099773407
          -0.4860750138759613 0.7922409772872925 -0.3688980042934418 -0.13903899490833282 0.9709619879722595 0.19468499720096588
          -0.18375900387763977 0.9738519787788391 0.13358399271965027 -0.3191480040550232 0.947517991065979 0.01883300021290779
          -0.49110400676727295 0.8703500032424927 -0.036159999668598175 0.13630299270153046 0.9303719997406006 0.34033700823783875
          0.7874240279197693 0.003913000226020813 0.6163989901542664 0.8222320079803467 0.01947999931871891 0.5688199996948242
          0.8553270101547241 0.022943999618291855 0.5175809860229492 0.8922460079193115 0.05321300029754639 0.448403000831604
          0.8808330297470093 0.10435199737548828 0.4617840051651001 0.7975800037384033 0.3260459899902344 0.5075039863586426
          0.7854520082473755 0.5088919997215271 0.35227200388908386 -0.5220170021057129 0.808493971824646 -0.2717280089855194
          0.32069000601768494 0.9454470276832581 0.057339999824762344 -0.258338987827301 0.9528930187225342 -0.15892300009727478
          0.6170650124549866 0.7151539921760559 0.32830700278282166 0.8331959843635559 0.09210199862718582 0.5452539920806885
          0.8384079933166504 0.00785099994391203 0.5449860095977783 0.740680992603302 0.049136001616716385 0.670058012008667
          0.6910489797592163 -0.010878000408411026 0.7227259874343872 0.7704799771308899 -0.1130020022392273 0.6273679733276367
          0.7985529899597168 -0.02131499908864498 0.6015470027923584 0.8368579745292664 -0.06152699887752533 0.5439509749412537
          0.8201190233230591 -0.11000200361013412 0.5615190267562866 0.7119070291519165 -0.04429500177502632 0.700875997543335
          0.8233270049095154 -0.079475998878479 0.5619760155677795 -0.937080979347229 -0.2922160029411316 -0.19102400541305542
          -0.9110429883003235 -0.38806700706481934 -0.13929800689220428 -0.9618809819221497 -0.2524380087852478 -0.10516200214624405
          -0.9712870121002197 -0.1931920051574707 -0.13884499669075012 -0.9539639949798584 -0.29650500416755676 0.045145001262426376
          -0.8306199908256531 -0.41833698749542236 0.3675119876861572 -0.8425139784812927 -0.4331960082054138 0.3201749920845032
          -0.9284489750862122 -0.37145400047302246 -0.0022350000217556953 -0.7599189877510071 -0.43374499678611755 0.4841359853744507
          -0.9372450113296509 -0.3462440073490143 -0.0410740002989769 -0.6804670095443726 -0.1217309981584549 -0.7225970029830933
          -0.6821789741516113 -0.20051799714565277 -0.7031530141830444 -0.54619300365448 -0.2847590148448944 -0.787771999835968
          -0.761696994304657 -0.1601410061120987 -0.627830982208252 -0.8996660113334656 -0.19263799488544464 -0.39177998900413513
          0.36212998628616333 0.23831500113010406 -0.9011480212211609 0.6595510244369507 0.3185119926929474 -0.6808390021324158
          0.14880500733852386 0.2672320008277893 -0.9520739912986755 -0.2684110105037689 0.06570299714803696 -0.9610610008239746
          0.049775999039411545 0.13307900726795197 -0.9898549914360046 -0.7165709733963013 -0.09071599692106247 -0.6915900111198425
          -0.6017370223999023 -0.09189499914646149 -0.7933899760246277 -0.456369012594223 0.007340999785810709 -0.8897600173950195
          0.865261971950531 0.3448140025138855 -0.3639029860496521 0.9052209854125977 0.41624099016189575 0.08554500341415405
          0.8272709846496582 0.4046500027179718 0.38971900939941406 0.8472170233726501 0.4024040102958679 0.34683600068092346
          0.7990999817848206 0.20631100237369537 0.5646899938583374 0.8234519958496094 0.2973569929599762 0.4832240045070648
          0.7874619960784912 0.11935000121593475 0.6046969890594482 0.7520340085029602 0.10711000114679337 0.650363028049469
          -0.9679139852523804 0.187733992934227 -0.16703100502490997 -0.9880020022392273 -0.14168700575828552 -0.061448998749256134
          -0.9888520240783691 -0.0016840000171214342 -0.14889000356197357 -0.9156680107116699 0.29365500807762146 -0.27444300055503845
          -0.8921779990196228 0.28025001287460327 -0.35422900319099426 -0.8429960012435913 0.41751500964164734 -0.33917298913002014
          -0.7341750264167786 0.673222005367279 -0.08808799833059311 -0.6119850277900696 0.7885540127754211 -0.06047699972987175
          0.006504000164568424 0.9095339775085449 0.4155780076980591 -0.07352100312709808 0.8289420008659363 0.554481029510498
          -0.20471100509166718 0.8037670254707336 0.5586169958114624 -0.4663259983062744 0.8488039970397949 -0.24914200603961945
          -0.43237200379371643 0.8626360297203064 -0.2625119984149933 -0.5850769877433777 0.8100969791412354 -0.037783000618219376
          -0.3127419948577881 0.8958439826965332 0.3156830072402954 0.8240730166435242 0.015079000033438206 0.5662829875946045
          0.8274840116500854 0.10297500342130661 0.5519660115242004 0.690447986125946 0.5329899787902832 0.48908400535583496
          0.6401450037956238 0.6202260255813599 0.4533590078353882 -0.5190420150756836 0.7519559860229492 -0.4063970148563385
          0.44216400384902954 0.8439229726791382 0.3037849962711334 0.1680459976196289 0.9637230038642883 0.20736199617385864
          -0.5021100044250488 0.826898992061615 -0.25322699546813965 -0.26319900155067444 0.9415349960327148 0.21032999455928802
          0.4609679877758026 0.7900890111923218 0.40406399965286255 0.616104006767273 0.017323000356554985 0.7874739766120911
          0.6993579864501953 0.07502000033855438 0.7108240127563477 0.850924015045166 -0.10155600309371948 0.515379011631012
          0.799992024898529 -0.13479900360107422 0.5846719741821289 0.8237619996070862 -0.0654430016875267 0.5631470084190369
          0.7012029886245728 -0.03839600086212158 0.7119269967079163 0.8737390041351318 -0.07975000143051147 0.47981300950050354
          0.9183779954910278 -0.03394699841737747 0.394243985414505 -0.9404379725456238 -0.33908501267433167 -0.02443699911236763
          -0.9079179763793945 -0.4087730050086975 -0.09267699718475342 -0.9424880146980286 -0.33252400159835815 0.033838000148534775
          -0.9646090269088745 -0.2636469900608063 0.0044999998062849045 -0.9610900282859802 -0.272597998380661 0.044684998691082
          -0.8992949724197388 -0.11384999752044678 -0.4222640097141266 -0.9729480147361755 -0.04207700118422508 -0.22716200351715088
          -0.9650629758834839 -0.24771100282669067 0.08540000021457672 -0.9664070010185242 -0.23545800149440765 0.10304000228643417
          -0.9959920048713684 -0.056954000145196915 0.06897199898958206 -0.7608349919319153 -0.5824679732322693 0.2861129939556122
          -0.8256279826164246 -0.3695429861545563 0.42635300755500793 -0.8985980153083801 -0.2568359971046448 0.3557479977607727
          -0.5635219812393188 -0.40391600131988525 0.7206220030784607 -0.6558070182800293 -0.4184040129184723 0.6283749938011169
          -0.6169800162315369 -0.4298569858074188 0.6592100262641907 -0.9162390232086182 -0.3659679889678955 0.16301199793815613
          -0.5161430239677429 -0.4874739944934845 0.7042480111122131 -0.8286470174789429 -0.3802019953727722 0.41084200143814087
          -0.3984149992465973 -0.5108339786529541 0.761784017086029 -0.6801630258560181 -0.1281840056180954 -0.7217659950256348
          -0.7915310263633728 -0.06065100058913231 -0.6081119775772095 0.4850359857082367 0.1382099986076355 -0.8635039925575256
          0.3381989896297455 0.1241530030965805 -0.9328489899635315 0.21897099912166595 0.06917499750852585 -0.9732760190963745
          0.6995440125465393 0.1721390038728714 -0.6935459971427917 0.012304999865591526 -0.03480599820613861 -0.99931800365448
          -0.2190060019493103 -0.08893699944019318 -0.9716619849205017 -0.6098319888114929 -0.21732400357723236 -0.7621520161628723
          -0.6381809711456299 -0.3254939913749695 -0.6976959705352783 -0.32345399260520935 -0.20991000533103943 -0.9226679801940918
          -0.361968994140625 -0.10199499875307083 -0.9265940189361572 0.9415590167045593 0.32193899154663086 0.09910999983549118
          0.9371839761734009 0.2875640094280243 -0.19746799767017365 0.9085609912872314 0.1883379966020584 -0.3728890120983124
          0.855014979839325 0.3244599997997284 0.40456700325012207 0.8043649792671204 0.3168730139732361 0.502581000328064
          0.7388579845428467 0.3386879861354828 0.5825629830360413 0.7677050232887268 0.28512999415397644 0.5738720297813416
          0.717710018157959 0.20471200346946716 0.6655719876289368 0.5889859795570374 0.09251900017261505 0.8028299808502197
          -0.9827979803085327 0.17241300642490387 -0.06619100272655487 -0.8679180145263672 0.4966660141944885 -0.0064039998687803745
          -0.9791060090065002 -0.17061099410057068 0.11065100133419037 -0.9913280010223389 0.10238300263881683 0.08238500356674194
          -0.8332939743995667 0.5217260122299194 -0.18282100558280945 -0.6988310217857361 0.676235020160675 0.23311400413513184
          -0.11938899755477905 0.8202440142631531 0.5594159960746765 -0.19554300606250763 0.8610259890556335 0.4694640040397644
          -0.16082899272441864 0.7767400145530701 0.6089410185813904 -0.3495909869670868 0.79653400182724 0.493274986743927
          -0.12832100689411163 0.7719470262527466 0.6226009726524353 -0.11755300313234329 0.765824019908905 0.6322150230407715
          -0.6216679811477661 0.7507659792900085 0.22333799302577972 -0.7385770082473755 0.668362021446228 0.08830200135707855
          -0.7400360107421875 0.6713200211524963 -0.0409340001642704 -0.24667100608348846 0.8222820162773132 0.512840986251831
          -0.5564370155334473 0.772367000579834 0.3063110113143921 -0.38203901052474976 0.8517850041389465 0.35847899317741394
          0.7638890147209167 0.1711210012435913 0.6222469806671143 0.7654010057449341 0.038770001381635666 0.6423839926719666
          0.8070939779281616 0.2910569906234741 0.5136979818344116 0.657863974571228 0.4285840094089508 0.619297981262207
          0.4403829872608185 0.6881420016288757 0.5766479969024658 0.27243900299072266 0.9021459817886353 0.33452799916267395
          0.04054500162601471 0.9189180135726929 0.3923580050468445 -0.5908190011978149 0.804843008518219 -0.05622800067067146
          -0.43122598528862 0.7814880013465881 0.4509100019931793 -0.15420399606227875 0.8342859745025635 0.5293279886245728
          -0.6213729977607727 0.7451500296592712 0.24217399954795837 0.24198099970817566 0.8275460004806519 0.5065690279006958
          0.4311850070953369 -0.038612000644207 0.901436984539032 0.8151990175247192 -0.03440900146961212 0.5781580209732056
          0.7704269886016846 -0.040720999240875244 0.6362259984016418 0.7610700130462646 -0.043949998915195465 0.6471790075302124
          0.7579389810562134 0.0008140000281855464 0.6523240208625793 0.7348899841308594 -0.10292799770832062 0.6703299880027771
          0.8286110162734985 -0.0962039977312088 0.5514960289001465 0.7467870116233826 -0.1846580058336258 0.6389139890670776
          0.8715419769287109 -0.08074499666690826 0.48362699151039124 0.6115390062332153 -0.14408500492572784 0.7779840230941772
          0.7346559762954712 -0.2251330018043518 0.6399970054626465 -0.9457370042800903 -0.27252599596977234 0.17694899439811707
          -0.933027982711792 -0.26502498984336853 0.2433529943227768 -0.9347410202026367 -0.2041819989681244 0.2908079922199249
          -0.907039999961853 -0.013141999952495098 -0.42083901166915894 -0.9690499901771545 0.05976400151848793 -0.2395229935646057
          -0.9978520274162292 -0.003091000020503998 0.06543800234794617 -0.9357389807701111 -0.2876099944114685 0.20413799583911896
          -0.9737460017204285 -0.13120099902153015 0.18602299690246582 -0.9591019749641418 -0.0379830002784729 0.28050199151039124
          0.9269059896469116 -0.2426770031452179 0.2862739861011505 0.13220299780368805 -0.7290289998054504 0.6715940237045288
          -0.5753960013389587 -0.275860995054245 0.7699480056762695 -0.5943390130996704 -0.3359470069408417 0.7306849956512451
          -0.9448009729385376 -0.1906840056180954 0.2664400041103363 -0.6776059865951538 -0.15846599638462067 0.7181500196456909
          -0.32060301303863525 -0.10060500353574753 0.9418560266494751 -0.15360499918460846 -0.363429993391037 0.9188709855079651