<?xml version="1.0"?>
<VTKFile type="PolyData" version="0.1" byte_order="LittleEndian" header_type="UInt32" compressor="vtkZLibDataCompressor">
  <PolyData>
    <Piece NumberOfPoints="211" NumberOfVerts="0" NumberOfLines="0" NumberOfStrips="0" NumberOfPolys="398">
      <PointData Normals="Normals">
        <DataArray type="Float32" Name="Normals" NumberOfComponents="3" format="ascii" RangeMin="0.9935570744515895" RangeMax="1.0000006933375811">
          0.4589160084724426 0.7356979846954346 0.49814000725746155 0.6465460062026978 0.4771629869937897 0.595225989818573
          0.4603860080242157 0.5748670101165771 0.6764410138130188 0.6477749943733215 0.7412829995155334 0.1757490038871765
          0.20394699275493622 0.6310139894485474 0.7484830021858215 0.5149270296096802 0.6880319714546204 0.5113329887390137
          0.3640440106391907 0.9209989905357361 -0.13867899775505066 -0.025867000222206116 0.997672975063324 0.06308600306510925
          0.8006119728088379 0.5117899775505066 -0.31159499287605286 0.798471987247467 0.5199530124664307 0.30346599221229553
          0.565093994140625 0.8175150156021118 0.11107400059700012 0.8339200019836426 0.5392150282859802 -0.11736799776554108
          0.5093690156936646 0.8106449842453003 -0.28878700733184814 -0.19738900661468506 0.8844889998435974 -0.42274901270866394
          0.7205619812011719 0.40258699655532837 -0.5645480155944824 0.5275830030441284 0.6782199740409851 -0.5115410089492798
          0.24727199971675873 0.8381869792938232 -0.4861049950122833 0.05753599852323532 0.8923220038414001 -0.4477179944515228
          0.8462100028991699 0.1831829994916916 -0.5003730058670044 0.6613439917564392 0.22235900163650513 -0.7163659930229187
          0.48360198736190796 0.612276017665863 -0.6254979968070984 0.4012170135974884 0.8331090211868286 -0.38072800636291504
          0.18812300264835358 0.9478359818458557 -0.25732800364494324 0.5417600274085999 0.41097500920295715 -0.7332090139389038
          0.3770020008087158 0.589443027973175 0.7144410014152527 -0.4648979902267456 0.6671000123023987 0.5821059942245483
          -0.24229000508785248 0.3577060103416443 0.9018549919128418 0.27131199836730957 0.10655800253152847 0.9565749764442444
          0.6425219774246216 0.6655319929122925 0.3797779977321625 0.40522000193595886 0.6163219809532166 0.6752369999885559
          0.3533500134944916 0.0754150003194809 0.9324470162391663 0.3133409917354584 0.147038996219635 0.9381880164146423
          0.530830979347229 0.0939050018787384 0.8422589898109436 0.6709510087966919 0.39466801285743713 0.6277430057525635
          0.8067190051078796 -0.32285499572753906 0.4949429929256439 0.9171379804611206 -0.07554499804973602 0.3913460075855255
          0.9614009857177734 0.1800130009651184 0.2080959975719452 0.8519399762153625 0.47648200392723083 0.21716900169849396
          0.7672320008277893 0.4157480001449585 0.4883739948272705 0.7808359861373901 -0.5203139781951904 0.3457860052585602
          0.9286680221557617 -0.3292990028858185 0.17069800198078156 0.994629979133606 -0.09227000176906586 0.0468670018017292
          0.9549509882926941 0.27316901087760925 0.11596599966287613 0.9190930128097534 0.39226698875427246 -0.03734400123357773
          0.7780910134315491 -0.619858980178833 0.10173500329256058 0.8861709833145142 -0.46150198578834534 0.041430000215768814
          0.9821230173110962 -0.17974799871444702 -0.055897001177072525 0.9735599756240845 0.17770999670028687 -0.1435289978981018
          0.8632940053939819 0.07612200081348419 -0.4989269971847534 0.7790480256080627 -0.576295018196106 -0.2469159960746765
          0.8651540279388428 -0.4446539878845215 -0.23193100094795227 0.935912013053894 -0.2047940045595169 -0.28658100962638855
          0.8793299794197083 0.07764600217342377 -0.46984100341796875 0.5763610005378723 0.32941699028015137 -0.747859001159668
          0.8596289753913879 -0.4082689881324768 -0.3071720004081726 0.8982149958610535 -0.3154909908771515 -0.30606400966644287
          0.8375139832496643 -0.23413899540901184 -0.4937100112438202 0.7347319722175598 -0.04943599924445152 -0.6765540242195129
          0.04471400007605553 0.1466049998998642 -0.9881839752197266 0.5921649932861328 -0.37286001443862915 -0.7143639922142029
          0.5763350129127502 -0.4653570055961609 -0.6717740297317505 0.5902690291404724 -0.4532789885997772 -0.6679229736328125
          0.42694899439811707 -0.29271501302719116 -0.855588972568512 0.29065999388694763 0.17492499947547913 -0.9407010078430176
          -0.42913299798965454 -0.048695001751184464 -0.9019280076026917 -0.3386000096797943 -0.382423996925354 -0.8597109913825989
          -0.4425469934940338 0.5836039781570435 -0.6808509826660156 -0.6849629878997803 -0.003338000038638711 -0.7285709977149963
          -0.2107979953289032 0.9047049880027771 -0.37023401260375977 -0.7274489998817444 0.23747800290584564 -0.6437559723854065
          -0.8541470170021057 0.5200290083885193 0.0018520000157877803 -0.20645900070667267 0.9755060076713562 0.0759190022945404
          -0.7175469994544983 0.5989500284194946 0.3555069863796234 -0.33256998658180237 0.9124580025672913 0.23836499452590942
          -0.7534019947052002 0.4188379943370819 0.5069119930267334 -0.27887699007987976 0.9589250087738037 -0.05187400057911873
          -0.9891579747200012 -0.10360000282526016 0.10408800095319748 -0.8209409713745117 -0.29881399869918823 -0.4865860044956207
          -0.8810089826583862 0.04193999990820885 0.471235990524292 -0.7511209845542908 -0.4055519998073578 -0.5209069848060608
          -0.966418981552124 -0.15001100301742554 -0.20864099264144897 -0.9441900253295898 0.1096469983458519 0.31061699986457825
          -0.6196359992027283 0.23428000509738922 0.7491090297698975 0.14658500254154205 0.20913000404834747 0.9668390154838562
          0.022773999720811844 0.15526099503040314 0.9876109957695007 0.011068999767303467 0.14623099565505981 0.9891890287399292
          -0.0853630006313324 0.20524999499320984 0.9749799966812134 0.2749220132827759 0.1794860064983368 0.9445649981498718
          0.09749700129032135 0.41227900981903076 0.9058259725570679 -0.8458899855613708 0.031235000118613243 0.5324419736862183
          -0.9634130001068115 -0.012721000239253044 0.26771798729896545 -0.8987460136413574 0.06668700277805328 0.4333679974079132
          -0.9966710209846497 -0.06398600339889526 -0.050515998154878616 0.632345974445343 -0.31167998909950256 -0.7092210054397583
          -0.5619840025901794 -0.30274099111557007 -0.7697550058364868 -0.05834700167179108 0.6459230184555054 -0.7611700296401978
          -0.13587899506092072 -0.5793219804763794 -0.8036929965019226 0.392661988735199 -0.7059360146522522 -0.5894659757614136
          0.14994500577449799 -0.4605090022087097 -0.8748990297317505 0.22045199573040009 -0.4229559898376465 -0.8789250254631042
          -0.5450990200042725 -0.41262099146842957 -0.7298020124435425 -0.5504059791564941 -0.3946110010147095 -0.7357550263404846
          -0.5399119853973389 -0.32855498790740967 -0.7749500274658203 -0.6135720014572144 -0.31085699796676636 -0.7258769869804382
          0.9970059990882874 -0.03104100003838539 0.07082100212574005 0.9838100075721741 -0.1293880045413971 0.12399999797344208
          0.9861249923706055 -0.15796999633312225 0.051024001091718674 0.8698329925537109 -0.42159798741340637 0.25621598958969116
          0.6464430093765259 -0.19992700219154358 0.7363020181655884 0.3831700086593628 0.20553800463676453 0.9005190134048462
          0.6065959930419922 0.1612119972705841 0.7784929871559143 0.7713850140571594 -0.10786399990320206 0.6271610260009766
          0.7774069905281067 -0.32135599851608276 0.540710985660553 0.4489719867706299 0.37480100989341736 0.8111410140991211
          0.8144670128822327 -0.5565009713172913 -0.16416500508785248 0.8906310200691223 -0.3316119909286499 -0.31114399433135986
          0.5762540102005005 -0.7755460143089294 -0.25780001282691956 0.746491014957428 -0.6640859842300415 -0.041728001087903976
          0.8144879937171936 -0.5689030289649963 -0.11383599787950516 0.5893650054931641 -0.1660030037164688 -0.7906270027160645
          -0.7672950029373169 -0.1884170025587082 -0.6129900217056274 -0.9217929840087891 -0.003920000046491623 0.38766300678253174
          -0.09353800117969513 0.1606920063495636 0.9825620055198669 0.6501070261001587 0.1756329983472824 0.7392659783363342
          0.9582459926605225 -0.031069999560713768 -0.2842540144920349 0.6349520087242126 -0.7464240193367004 -0.1992190033197403
          0.7856810092926025 -0.5946900248527527 -0.1704380065202713 0.6621379852294922 0.013291999697685242 -0.7492640018463135
          0.9160490036010742 0.1716800034046173 -0.3624649941921234 0.8045369982719421 -0.5395039916038513 0.22107599675655365
          0.8548979759216309 0.3025299906730652 0.4214549958705902 0.5216450095176697 -0.6089829802513123 0.5975170135498047
          0.13639600574970245 0.08321599662303925 0.9871529936790466 -0.2128860056400299 -0.7132250070571899 0.6678249835968018
          -0.033312998712062836 -0.8104619979858398 0.5848429799079895 -0.31300899386405945 -0.18299299478530884 0.931954026222229
          0.2372400015592575 -0.7174379825592041 0.6549800038337708 -0.3752579987049103 -0.14829300343990326 0.9149810075759888
          0.47872400283813477 -0.5421800017356873 0.681190013885498 -0.20398299396038055 -0.8047419786453247 0.5574780106544495
          -0.976078987121582 -0.14175300300121307 0.16485199332237244 -0.2514980137348175 -0.6698390245437622 -0.6986160278320312
          -0.5753880143165588 -0.2743929922580719 -0.7704790234565735 0.0775739997625351 -0.7226619720458984 -0.6868339776992798
          -0.1942339986562729 -0.47409799695014954 -0.8587809801101685 0.10207799822092056 -0.8746910095214844 -0.47381100058555603
          -0.052962999790906906 -0.8337270021438599 -0.5496320128440857 -0.0388059988617897 -0.41358500719070435 -0.909637987613678
          0.006202000193297863 -0.8656460046768188 -0.5006179809570312 0.3044550120830536 -0.9524679780006409 -0.010537000373005867
          0.6651269793510437 -0.015867000445723534 -0.7465609908103943 0.5821089744567871 0.14076699316501617 -0.800832986831665
          0.8210740089416504 0.08495000004768372 -0.5644649863243103 0.8166620135307312 0.3196620047092438 -0.4805000126361847
          0.8622320294380188 0.3541559875011444 0.3621169924736023 0.7119749784469604 0.6009830236434937 0.36319500207901
          -0.06391000002622604 0.32312801480293274 0.9441949725151062 0.02474999986588955 0.5340660214424133 0.8450809717178345
          -0.5402320027351379 0.21886999905109406 0.8125550150871277 -0.7494159936904907 0.12415499985218048 0.6503549814224243
          -0.8332089781761169 0.19180500507354736 0.5186269879341125 -0.9751870036125183 -0.04845099896192551 -0.21601499617099762
          -0.8762969970703125 -0.07516899704933167 -0.4758700132369995 -0.45883598923683167 -0.1903419941663742 -0.8678929805755615
          -0.25634199380874634 -0.21071599423885345 -0.9433389902114868 0.29998600482940674 -0.16700899600982666 -0.9392099976539612
          0.06233600154519081 -0.098191998898983 -0.9932129979133606 0.7309150099754333 -0.059856001287698746 -0.679839015007019
          0.6855980157852173 -0.11186199635267258 -0.7193340063095093 0.8740370273590088 0.014437999576330185 -0.48564401268959045
          0.9595289826393127 0.03919000178575516 -0.2788679897785187 0.9208239912986755 0.14040400087833405 0.3638260066509247
          0.5784059762954712 0.253495991230011 0.7753620147705078 -0.2670780122280121 0.13398399949073792 0.9543150067329407
          -0.20716500282287598 0.20487700402736664 0.9566130042076111 -0.9101799726486206 0.005446000024676323 0.4141780138015747
          -0.9630100131034851 -0.08884400129318237 0.25440001487731934 -0.8701789975166321 -0.18953999876976013 -0.45482200384140015
          -0.6791729927062988 -0.19578899443149567 -0.7073829770088196 -0.13273899257183075 -0.2369060069322586 -0.9624220132827759
          -0.14843499660491943 -0.19728399813175201 -0.969044029712677 0.3899399936199188 -0.19665199518203735 -0.8995969891548157
          0.845740020275116 0.022864000871777534 -0.5331050157546997 0.8342090249061584 0.034026000648736954 -0.5503969788551331
          0.9241939783096313 0.06928999722003937 -0.37558498978614807 0.8685600161552429 0.006912000011652708 -0.4955349862575531
          0.8001760244369507 0.1494079977273941 0.5808579921722412 0.8455219864845276 0.14079000055789948 0.5150430202484131
          -0.31598299741744995 0.09921099990606308 0.9435629844665527 -0.21663199365139008 0.09318599849939346 0.9717959761619568
          -0.9496260285377502 -0.0723159983754158 0.3049289882183075 -0.8669999837875366 -0.06342899799346924 0.49425598978996277
          -0.6952229738235474 -0.19081999361515045 -0.6930019855499268 -0.8187659978866577 -0.16971099376678467 -0.5484700202941895
          -0.4225560128688812 -0.20626300573349 -0.8825539946556091 -0.5456910133361816 -0.14112800359725952 -0.8260170221328735
          0.831043004989624 -0.029503000900149345 -0.5554260015487671 0.8341180086135864 -0.004550000187009573 -0.5398489832878113
          0.8561990261077881 0.003378999885171652 -0.516635000705719 0.8822929859161377 -0.000155999994603917 -0.4707010090351105
          0.860023021697998 0.1001409962773323 0.5003319978713989 0.848110020160675 0.1531350016593933 0.5072069764137268
          -0.07507599890232086 0.08215200155973434 0.9937880039215088 0.03653300181031227 0.11454399675130844 0.9927459955215454
          -0.7491570115089417 -0.05587200075387955 0.6600310206413269 -0.7357919812202454 -0.003636999987065792 0.6771979928016663
          -0.8558989763259888 -0.13553300499916077 -0.49906599521636963 -0.8410580158233643 -0.17077699303627014 -0.513280987739563
          -0.5779330134391785 -0.1512639969587326 -0.8019430041313171 -0.5620070099830627 -0.1878730058670044 -0.8055139780044556
          -0.5019130110740662 -0.17464600503444672 -0.8471019864082336
          <InformationKey name="L2_NORM_RANGE" location="vtkDataArray" length="2">
            <Value index="0">
              0.99355707445
            </Value>
            <Value index="1">
              1.0000006933
            </Value>
          </InformationKey>
        </DataArray>
      </PointData>
      <CellData>
      </CellData>
      <Points>
        <DataArray type="Float32" Name="Points" NumberOfComponents="3" format="ascii" RangeMin="0.011046227820464423" RangeMax="0.2522747754823259">
          -0.009356999769806862 -0.010036000050604343 0.00785600021481514 -0.010112999938428402 -0.010627999901771545 0.012292999774217606
          -0.005750999785959721 -0.012392999604344368 0.009177000261843204 -0.009587000124156475 -0.008685999549925327 0.0048870001919567585
          -0.0010420000180602074 -0.013202999718487263 0.007969999685883522 0.004925999790430069 -0.01332900021225214 0.007780000101774931
          -0.005390999838709831 -0.011931000277400017 0.004383999854326248 -0.0006880000000819564 -0.012640999630093575 0.0036230001132935286
          0.006213000044226646 -0.00991899985820055 0.0016060000052675605 -0.009775999933481216 -0.007220999803394079 0.002899999963119626
          -0.006988999899476767 -0.010852999985218048 0.0026740001048892736 -0.009685000404715538 -0.006639000028371811 0.0009250000002793968
          -0.006101000122725964 -0.011526999995112419 0.0003549999964889139 0.0031679999083280563 -0.012140000239014626 -0.000014000000192027073
          -0.010966000147163868 -0.007763999979943037 -0.002188999904319644 -0.007739999797195196 -0.011973000131547451 -0.002722000004723668
          -0.003865000093355775 -0.014444000087678432 -0.003771000076085329 0.00022699999681208283 -0.01539199985563755 -0.004437999799847603
          0.0037360000424087048 -0.017105000093579292 -0.007017000112682581 -0.013732999563217163 -0.009488999843597412 -0.0056489999406039715
          -0.011323000304400921 -0.012143000029027462 -0.005843000020831823 -0.0066639999859035015 -0.01566999964416027 -0.00723800016567111
          -0.004120999947190285 -0.016919000074267387 -0.007896999828517437 0.0021279999054968357 -0.017355000600218773 -0.010677999816834927
          -0.010228999890387058 0.011257000267505646 0.008116000331938267 -0.016565000638365746 0.009457999840378761 0.008913000114262104
          -0.022600000724196434 0.0001500000071246177 0.00877899955958128 -0.019672000780701637 -0.005675000138580799 0.008803999982774258
          -0.014883999712765217 -0.011750999838113785 0.01115499995648861 -0.011490000411868095 -0.014189999550580978 0.014937000349164009
          -0.015356999821960926 0.008150000125169754 0.010269000194966793 -0.016029000282287598 0.00330700003542006 0.011049999855458736
          -0.014179999940097332 -0.0024949999060481787 0.010495999827980995 -0.011122999712824821 -0.006936999969184399 0.00826600007712841
          -0.011660000309348106 0.005528000183403492 0.006180999800562859 -0.012462999671697617 -0.00014400000509340316 0.005497000180184841
          -0.011780999600887299 -0.004515999928116798 0.005016000010073185 -0.010900000110268593 -0.007065999787300825 0.004912999924272299
          -0.0071000000461936 0.011211000382900238 0.004532000049948692 -0.009296000003814697 0.0076419999822974205 0.0028840000741183758
          -0.011010999791324139 0.00431900005787611 0.0024389999452978373 -0.01203600037842989 0.0007489999989047647 0.00266700005158782
          -0.012136000208556652 -0.002560999942943454 0.0029780000913888216 -0.005171000026166439 0.010976999998092651 0.00010299999848939478
          -0.008128000423312187 0.0074800001457333565 0.00006600000051548705 -0.010493000037968159 0.004523000214248896 0.0001539999939268455
          -0.011811000294983387 0.0006309999735094607 0.00020799999765586108 -0.011982999742031097 -0.00228599994443357 0.00020199999562464654
          -0.006963999941945076 0.010672000236809254 -0.006821000017225742 -0.008967000059783459 0.00776199996471405 -0.004900999832898378
          -0.011210000142455101 0.004317999817430973 -0.004404000006616116 -0.01269800029695034 0.00033000000985339284 -0.003140999935567379
          -0.013221999630331993 -0.004129999782890081 -0.004468000028282404 -0.011416999623179436 0.010027999989688396 -0.011276000179350376
          -0.013547999784350395 0.004898999817669392 -0.009863000363111496 -0.014871000312268734 0.00042100000428035855 -0.008549000136554241
          -0.01475400011986494 -0.002770999912172556 -0.00801599957048893 -0.015062999911606312 -0.0062859999015927315 -0.007029999978840351
          -0.015003999695181847 0.005051000043749809 -0.014065999537706375 -0.01559399999678135 0.0010179999517276883 -0.013027999550104141
          -0.01572299934923649 -0.0031739999540150166 -0.011095000430941582 -0.01700199954211712 -0.005547999870032072 -0.010122000239789486
          -0.017284000292420387 -0.008047999814152718 -0.00829899962991476 -0.01654299907386303 -0.010502000339329243 -0.00800000037997961
          -0.021637000143527985 0.0016400000313296914 -0.012486999854445457 -0.02480199933052063 -0.006831000093370676 -0.008612999692559242
          -0.01726900041103363 0.0090549997985363 -0.010982999578118324 -0.025203999131917953 -0.000674000009894371 -0.01092899963259697
          -0.016279000788927078 0.011982999742031097 -0.006461000069975853 -0.026910999789834023 0.0029440000653266907 -0.009452000260353088
          -0.028320999816060066 0.006335999816656113 -0.003633999964222312 -0.016318999230861664 0.012145999819040298 -0.0014090000186115503
          -0.026861000806093216 0.006068999879062176 -0.000547999981790781 -0.017285000532865524 0.011343000456690788 0.0032550001051276922
          -0.025526000186800957 0.0043020001612603664 0.003452999982982874 -0.01317800022661686 0.010487999767065048 0.00974200014024973
          -0.02726300060749054 -0.023614000529050827 0.007712999824434519 -0.026833999902009964 -0.017931999638676643 0.0032099999953061342
          -0.027201000601053238 -0.016894999891519547 0.0077149998396635056 -0.026110000908374786 -0.01065600011497736 -0.003415999934077263
          -0.027814000844955444 -0.009127999655902386 -0.000838999985717237 -0.02765199914574623 -0.007253000047057867 0.00392200006172061
          -0.025039000436663628 -0.008616999723017216 0.00939099956303835 -0.015259999781847 -0.04730900004506111 0.022130999714136124
          -0.015519999898970127 -0.03912600129842758 0.02077299915254116 -0.013654000125825405 -0.03400300070643425 0.02016500011086464
          -0.011509999632835388 -0.026965999975800514 0.018995000049471855 -0.01107999961823225 -0.019733000546693802 0.01822900027036667
          -0.011261999607086182 -0.01695300079882145 0.01707500033080578 -0.024555999785661697 -0.04785199835896492 0.01853499934077263
          -0.02560799941420555 -0.042736999690532684 0.016367999836802483 -0.026040000841021538 -0.03887899965047836 0.014619000256061554
          -0.027055000886321068 -0.03226599842309952 0.011806000024080276 -0.00927599985152483 -0.04971500113606453 0.007927999831736088
          -0.01938300020992756 -0.05063699930906296 0.01001800037920475 -0.008957999758422375 -0.015085999853909016 -0.012608000077307224
          -0.00834100041538477 -0.022539999336004257 -0.01090100035071373 -0.007114999927580357 -0.026690000668168068 -0.004722000099718571
          -0.008485999889671803 -0.03512899950146675 0.0004900000058114529 -0.009267999790608883 -0.04235300049185753 0.0036720000207424164
          -0.018624000251293182 -0.018964000046253204 -0.0010870000114664435 -0.019742999225854874 -0.029312999919056892 0.0024049999192357063
          -0.019500000402331352 -0.03578000143170357 0.004815000109374523 -0.020181000232696533 -0.04250200092792511 0.007588000036776066
          -0.007814999669790268 -0.049835000187158585 0.014589999802410603 -0.006136999931186438 -0.0405689999461174 0.009859000332653522
          -0.004792000167071819 -0.032287001609802246 0.008138000033795834 -0.0034580000210553408 -0.025769999250769615 0.00952600035816431
          -0.0004839999892283231 -0.02174299955368042 0.01165900006890297 -0.003871999913826585 -0.023346999660134315 0.012984000146389008
          -0.007166000083088875 -0.022235000506043434 0.014585999771952629 -0.009093999862670898 -0.0361890010535717 0.01450399961322546
          0.002050000010058284 -0.017994999885559082 0.00999400019645691 -0.005836000200361013 -0.01798900030553341 0.010815000161528587
          -0.003148999996483326 -0.023945000022649765 0.0018980000168085098 -0.006957000121474266 -0.038474999368190765 0.0053610000759363174
          -0.0022060000337660313 -0.022298000752925873 -0.007160000037401915 -0.0005699999746866524 -0.020323999226093292 -0.0021349999587982893
          0.0011709999525919557 -0.019370000809431076 0.0009790000040084124 -0.011115999892354012 -0.07182099670171738 0.012424999848008156
          -0.020547999069094658 -0.07126100361347198 0.017356999218463898 -0.022393999621272087 -0.07218299806118011 0.024932000786066055
          -0.014015000313520432 -0.07073300331830978 0.025699999183416367 -0.007666000165045261 -0.06912499666213989 0.0255769994109869
          -0.009599000215530396 -0.07074400037527084 0.018446000292897224 0.009410000406205654 -0.24367600679397583 0.043255001306533813
          0.012916999869048595 -0.24160200357437134 0.0466650016605854 0.008287999778985977 -0.24027299880981445 0.04075299948453903
          0.012822000309824944 -0.23601900041103363 0.044891998171806335 0.012263000011444092 -0.2409839928150177 0.05121999979019165
          0.014062999747693539 -0.23346400260925293 0.05031299963593483 0.009751000441610813 -0.24150800704956055 0.05418400093913078
          0.01017799973487854 -0.23555700480937958 0.055045001208782196 0.006771999876946211 -0.2425210028886795 0.05326500162482262
          0.004298999905586243 -0.24330900609493256 0.05050700157880783 0.004889000207185745 -0.23758600652217865 0.05611100047826767
          0.00031800000579096377 -0.24417899549007416 0.04940799996256828 0.001133000012487173 -0.23927700519561768 0.052473001182079315
          -0.0008030000026337802 -0.2455510050058365 0.04969700053334236 -0.0024689999409019947 -0.24757899343967438 0.048385001718997955
          -0.006014999933540821 -0.24188999831676483 0.04867599904537201 -0.004182999953627586 -0.24611499905586243 0.0460439994931221
          -0.001943000010214746 -0.24198299646377563 0.044509001076221466 -0.0013920000055804849 -0.24493800103664398 0.045708999037742615
          0.0006719999946653843 -0.24164800345897675 0.04194999858736992 -0.00011899999663000926 -0.2438659965991974 0.044798001646995544
          0.003664999967440963 -0.2435470074415207 0.04299699887633324 0.00853700004518032 -0.24065400660037994 0.040980998426675797
          0.00919399969279766 -0.2437870055437088 0.043480999767780304 0.0024999999441206455 -0.24407300353050232 0.046852998435497284
          0.0031240000389516354 -0.2254820019006729 0.03998899832367897 0.005034000147134066 -0.23286600410938263 0.04070800170302391
          0.007102999836206436 -0.2230760008096695 0.04348300024867058 0.010181000456213951 -0.23047900199890137 0.04473600164055824
          0.006682000122964382 -0.22125600278377533 0.046858999878168106 0.010114000178873539 -0.22992299497127533 0.04933499917387962
          0.0010489999549463391 -0.22210000455379486 0.04826800152659416 0.004540999885648489 -0.22954000532627106 0.05233899876475334
          -0.000155999994603917 -0.23257699608802795 0.05001800134778023 -0.0035840000491589308 -0.224031001329422 0.04597700014710426
          -0.004004000220447779 -0.23344799876213074 0.04829299822449684 -0.0036669999826699495 -0.2249850034713745 0.04236700013279915
          -0.004509999882429838 -0.2348410040140152 0.04379500076174736 -0.0008370000286959112 -0.2259490042924881 0.03897500038146973
          -0.0011060000397264957 -0.234265998005867 0.04038099944591522 0.002966000000014901 -0.22578799724578857 0.04030599817633629
          0.0045380000956356525 -0.23279300332069397 0.0410659983754158 0.000011000000085914508 -0.1878110021352768 0.0314520001411438
          0.002274000085890293 -0.21374699473381042 0.03719799965620041 0.0031419999431818724 -0.18756699562072754 0.034797001630067825
          0.005377000197768211 -0.2124129980802536 0.03972399979829788 0.0035800000187009573 -0.1871650069952011 0.04038099944591522
          0.0053090001456439495 -0.21186499297618866 0.04365300014615059 -0.0040259999223053455 -0.188058003783226 0.04009599983692169
          -0.0006419999990612268 -0.21191799640655518 0.04585700109601021 -0.0047079999931156635 -0.21291400492191315 0.04323999956250191
          -0.008311999961733818 -0.18918299674987793 0.036361999809741974 -0.00394000019878149 -0.21392999589443207 0.03842100128531456
          -0.006101000122725964 -0.18818800151348114 0.03263299912214279 -0.0016370000084862113 -0.2143159955739975 0.03582699969410896
          -0.000029999999242136255 -0.18722400069236755 0.030549999326467514 0.0022169998846948147 -0.21354900300502777 0.03733000159263611
          -0.007424000184983015 -0.13940300047397614 0.02224699966609478 -0.003628999926149845 -0.16205500066280365 0.026291999965906143
          -0.0008249999955296516 -0.1629129946231842 0.031307000666856766 -0.0030300000216811895 -0.13913600146770477 0.02876400016248226
          0.001183000043965876 -0.16250300407409668 0.03755899891257286 -0.0005290000117383897 -0.1381170004606247 0.03317299857735634
          -0.006564000155776739 -0.16400699317455292 0.037147000432014465 -0.008696000091731548 -0.1393440067768097 0.03307199850678444
          -0.012078999541699886 -0.1648010015487671 0.03412799909710884 -0.013992000371217728 -0.1400119960308075 0.030944999307394028
          -0.009909000247716904 -0.163224995136261 0.029048999771475792 -0.013352000154554844 -0.13903500139713287 0.025877000764012337
          -0.0034439999144524336 -0.1621450036764145 0.026203999295830727 -0.007482000160962343 -0.13920700550079346 0.022154999896883965
          -0.01079300045967102 -0.09970399737358093 0.016769999638199806 -0.008779999800026417 -0.11907599866390228 0.019881999120116234
          -0.005038000177592039 -0.11846199631690979 0.02559100091457367 -0.0066019999794662 -0.09905499964952469 0.0229250006377697
          -0.0019020000472664833 -0.1174829974770546 0.0314750000834465 -0.003527000080794096 -0.09718099981546402 0.02857399918138981
          -0.008728999644517899 -0.11861799657344818 0.0318170003592968 -0.011009999550879002 -0.09785299748182297 0.029224000871181488
          -0.016496999189257622 -0.11912699788808823 0.03103500045835972 -0.01907999999821186 -0.09846100211143494 0.0300539992749691
          -0.016150999814271927 -0.11917400360107422 0.02571200020611286 -0.018081000074744225 -0.0996910035610199 0.023002000525593758
          -0.008848000317811966 -0.11937200278043747 0.020601000636816025 -0.010327000170946121 -0.09996899962425232 0.01721999980509281
          -0.011079000309109688 -0.0717260017991066 0.011842000298202038
          <InformationKey name="L2_NORM_RANGE" location="vtkDataArray" length="2">
            <Value index="0">
              0.01104622782
            </Value>
            <Value index="1">
              0.25227477548
            </Value>
          </InformationKey>
        </DataArray>
      </Points>
      <Verts>
        <DataArray type="Int64" Name="connectivity" format="ascii" RangeMin="1e+299" RangeMax="-1e+299">
        </DataArray>
        <DataArray type="Int64" Name="offsets" format="ascii" RangeMin="1e+299" RangeMax="-1e+299">
        </DataArray>
      </Verts>
      <Lines>
        <DataArray type="Int64" Name="connectivity" format="ascii" RangeMin="1e+299" RangeMax="-1e+299">
        </DataArray>
        <DataArray type="Int64" Name="offsets" format="ascii" RangeMin="1e+299" RangeMax="-1e+299">
        </DataArray>
      </Lines>
      <Strips>