<?xml version="1.0"?>
<VTKFile type="PolyData" version="0.1" byte_order="LittleEndian" header_type="UInt32" compressor="vtkZLibDataCompressor">
  <PolyData>
    <Piece NumberOfPoints="1502" NumberOfVerts="0" NumberOfLines="0" NumberOfStrips="0" NumberOfPolys="3001">
      <PointData Normals="Normals">
        <DataArray type="Float32" Name="Normals" NumberOfComponents="3" format="ascii" RangeMin="0.9999992570303123" RangeMax="1.0000007584314254">
          0.26991701126098633 -0.023321999236941338 0.9626010060310364 0.24735000729560852 -0.012626999989151955 0.9688439965248108
          -0.35992398858070374 -0.07706499844789505 0.9297940135002136 0.19189800322055817 -0.06794700026512146 0.9790599942207336
          0.4740299880504608 0.0321040004491806 0.8799229860305786 0.49515199661254883 0.0025100000202655792 0.8688030242919922
          0.231781005859375 0.007271000184118748 0.9727410078048706 -0.4857180118560791 -0.12893499433994293 0.8645539879798889
          0.20974799990653992 -0.04157299920916557 0.9768710136413574 -0.9155250191688538 -0.12597699463367462 0.3820270001888275
          -0.9925439953804016 -0.10950600355863571 -0.053523000329732895 -0.645451009273529 -0.07242900133132935 0.7603600025177002
          -0.9963099956512451 -0.07624500244855881 -0.039406999945640564 0.10243900120258331 0.011415000073611736 0.994674026966095
          0.4443590044975281 -0.04760099947452545 0.894582986831665 0.34505200386047363 -0.0759269967675209 0.9355080127716064
          0.36721301078796387 0.022982999682426453 0.9298530220985413 0.6342549920082092 0.05514499917626381 0.7711549997329712
          0.6893200278282166 0.04431099817156792 0.7231000065803528 0.6867640018463135 0.0305550005286932 0.7262380123138428
          -0.22058099508285522 -0.11668899655342102 0.9683640003204346 -0.7692559957504272 -0.10681399703025818 0.6299489736557007
          0.25179898738861084 -0.04219000041484833 0.966858983039856 -0.9940239787101746 -0.0842059999704361 0.06946499645709991
          -0.941332995891571 -0.07830200344324112 -0.3282710015773773 -0.8843449950218201 -0.08526100218296051 -0.45898300409317017
          -0.8990319967269897 -0.06894899904727936 -0.4324199855327606 -0.9934599995613098 -0.11414200067520142 0.0028329999186098576
          -0.7381550073623657 -0.09792599827051163 0.6674860119819641 0.10391700267791748 0.028108999133110046 0.9941890239715576
          -0.9396439790725708 -0.09247399866580963 -0.3294200003147125 -0.9248049855232239 -0.060812000185251236 -0.37554898858070374
          0.30191799998283386 0.050457000732421875 0.9519979953765869 0.5648750066757202 -0.043845001608133316 0.8240110278129578
          0.3835330009460449 -0.04777799919247627 0.922290027141571 0.5939319729804993 0.09984199702739716 0.7982959747314453
          0.7686610221862793 0.14090900123119354 0.6239429712295532 0.7994930148124695 0.07344699651002884 0.5961670279502869
          0.809781014919281 0.07283999770879745 0.5821939706802368 0.7998960018157959 0.1007080003619194 0.5916280150413513
          0.6035670042037964 0.003438000101596117 0.7973049879074097 -0.08488699793815613 -0.08578100055456161 0.9926909804344177
          -0.8459630012512207 -0.12744399905204773 0.5177879929542542 -0.9798750281333923 -0.08605899661779404 0.1801059991121292
          -0.923783004283905 -0.05628399923443794 -0.3787569999694824 -0.8183069825172424 -0.07209499925374985 -0.5702419877052307
          -0.7816020250320435 -0.047981999814510345 -0.6219289898872375 -0.7678670287132263 0.011191999539732933 -0.6405119895935059
          -0.9908419847488403 -0.11677099764347076 0.06779699772596359 -0.9765759706497192 -0.1609870046377182 -0.14276500046253204
          -0.41756901144981384 -0.09557700157165527 0.9036049842834473 0.4296649992465973 0.08873099833726883 0.8986179828643799
          -0.834712028503418 -0.10433900356292725 -0.540710985660553 0.6101769804954529 0.129039004445076 0.781686007976532
          0.25019899010658264 0.024786999449133873 0.9678769707679749 0.801971971988678 0.20794400572776794 0.5600000023841858
          0.8713020086288452 0.12936200201511383 0.47339001297950745 0.8431100249290466 0.2507840096950531 0.47568100690841675
          0.8758490085601807 0.10271099954843521 0.4715290069580078 0.8876780271530151 0.16194400191307068 0.4310469925403595
          0.9238680005073547 0.2062389999628067 0.3223859965801239 0.7351170182228088 0.08833800256252289 0.6721600294113159
          0.8668860197067261 0.12119700014591217 0.4835500121116638 -0.8162689805030823 -0.08237499743700027 0.5717689990997314
          -0.9786959886550903 -0.09222999960184097 -0.1834309995174408 -0.9891160130500793 -0.07691200077533722 -0.1254349946975708
          -0.9231979846954346 -0.03795899823307991 -0.3824470043182373 -0.6284629702568054 -0.05181900039315224 -0.7761120200157166
          -0.6195459961891174 -0.02897600084543228 -0.7844250202178955 -0.6273239850997925 -0.0012809999752789736 -0.7787569761276245
          -0.5425649881362915 0.09639400243759155 -0.8344650268554688 -0.6054890155792236 0.14950500428676605 -0.7816849946975708
          -0.8684729933738708 0.012893999926745892 -0.49556800723075867 -0.4914669990539551 0.08830700069665909 -0.8664079904556274
          -0.8451359868049622 -0.13070499897003174 -0.5183249711990356 -0.9765689969062805 -0.208979994058609 0.051375001668930054
          -0.40342599153518677 -0.2135390043258667 0.8897460103034973 0.2912299931049347 -0.11208999902009964 0.9500640034675598
          0.4117850065231323 0.017930999398231506 0.9111040234565735 0.7618139982223511 0.14376400411128998 0.6316419839859009
          0.8107929825782776 0.10295899957418442 0.5762069821357727 -0.6541799902915955 -0.0807270035147667 -0.7520179748535156
          0.1775600016117096 0.1165430024266243 0.9771850109100342 0.5398880243301392 0.09136900305747986 0.8367630243301392
          0.6234359741210938 0.13231399655342102 0.770596981048584 -0.5736860036849976 0.04903599992394447 0.8176059722900391
          0.9014769792556763 0.20337900519371033 0.382068008184433 0.9015880227088928 0.3087739944458008 0.30298200249671936
          0.9761790037155151 0.1868080049753189 -0.11034700274467468 0.9473810195922852 0.3021790087223053 -0.10562299937009811
          0.971451997756958 0.19707100093364716 0.13207699358463287 0.9436140060424805 0.23414300382137299 0.23402799665927887
          0.9595109820365906 0.28056201338768005 -0.02498600073158741 0.9013980031013489 0.19056600332260132 0.3888019919395447
          0.8267679810523987 0.11036399751901627 0.5516110062599182 0.8494549989700317 0.15204599499702454 0.5052800178527832
          0.877295970916748 0.18752199411392212 0.44179901480674744 0.8381869792938232 0.17776599526405334 0.5155979990959167
          0.7160230278968811 0.0683170035481453 0.694724977016449 -0.9971609711647034 -0.016837000846862793 -0.07339199632406235
          -0.9459360241889954 -0.03246999904513359 -0.32272401452064514 -0.44000598788261414 -0.021916000172495842 -0.8977270126342773
          -0.458081990480423 0.013358999975025654 -0.8888099789619446 -0.4736100137233734 0.04795600101351738 -0.8794280290603638
          -0.03241100162267685 0.38884299993515015 -0.9207339882850647 -0.13105200231075287 0.24571900069713593 -0.960440993309021
          -0.37776899337768555 0.1486310064792633 -0.9138919711112976 -0.7666580080986023 0.021911999210715294 -0.6416810154914856
          -0.4732449948787689 0.23032499849796295 -0.8502879738807678 -0.5370129942893982 0.0543689988553524 -0.8418200016021729
          -0.9147909879684448 -0.012631000019609928 -0.40372899174690247 -0.9582819938659668 -0.012544999830424786 -0.28554999828338623
          -0.9502620100975037 -0.01614299975335598 -0.3110339939594269 -0.3482759892940521 0.09400500357151031 -0.932666003704071
          -0.28063300251960754 0.1757880002260208 -0.9435799717903137 -0.8410090208053589 -0.15881599485874176 -0.5171849727630615
          -0.6711900234222412 -0.099651999771595 -0.7345569729804993 -0.9608349800109863 -0.21845899522304535 0.17050500214099884
          -0.891260027885437 -0.17463800311088562 -0.4185180068016052 -0.7169409990310669 -0.3591560125350952 0.5974969863891602
          0.31078100204467773 -0.17665499448776245 0.9339209794998169 0.5825949907302856 -0.03009999915957451 0.8122050166130066
          0.533873975276947 -0.10117900371551514 0.8394889831542969 0.9045689702033997 0.09146299958229065 0.4164009988307953
          0.9698359966278076 0.1258859932422638 0.20873700082302094 0.755666971206665 0.03992199897766113 0.6537380218505859
          0.8848350048065186 0.24785000085830688 -0.3945100009441376 -0.42691099643707275 -0.03479300066828728 -0.9036239981651306
          0.42170000076293945 0.08269300311803818 0.902957022190094 -0.13884299993515015 0.10242900252342224 0.9850029945373535
          0.052101001143455505 0.10287100076675415 0.9933289885520935 0.6034550070762634 -0.006198999937623739 0.7973729968070984
          0.2148669958114624 0.0775969997048378 0.9735559821128845 0.6800069808959961 0.08971799910068512 0.7276960015296936
          -0.8060759902000427 0.04837699979543686 0.5898320078849792 0.37518998980522156 0.23693299293518066 -0.8961560130119324
          0.31678399443626404 0.15221799910068512 -0.9362040162086487 0.137580007314682 0.14863400161266327 -0.9792749881744385
          0.009099000133574009 0.07560800015926361 -0.9970960021018982 0.31856900453567505 0.26888200640678406 -0.9089639782905579
          0.9374309778213501 0.3374229967594147 0.08584699779748917 0.6380680203437805 0.4114449918270111 -0.6508319973945618
          0.9247490167617798 0.28832799196243286 0.24840599298477173 0.9130910038948059 0.12140300124883652 0.38926300406455994
          0.9174739718437195 0.03680700063705444 0.39608800411224365 0.9936479926109314 0.01591699942946434 0.11139799654483795
          0.9392110109329224 0.19031399488449097 0.285768985748291 0.7190080285072327 -0.03478499874472618 0.6941310167312622
          0.8133640289306641 -0.024824999272823334 0.5812249779701233 0.7441220283508301 -0.06269100308418274 0.6650959849357605
          -0.9956910014152527 0.004286999814212322 0.09262999892234802 -0.3843660056591034 -0.023641999810934067 -0.9228780269622803
          -0.407710999250412 0.005189999938011169 -0.913096010684967 -0.4036940038204193 0.036024000495672226 -0.9141839742660522
          0.0020630001090466976 0.5393959879875183 -0.8420500159263611 0.2758429944515228 0.4330199956893921 -0.8581399917602539
          0.7586590051651001 0.5452550053596497 -0.35655900835990906 -0.8000440001487732 -0.0813629999756813 -0.594398021697998
          -0.5939450263977051 -0.025178000330924988 -0.8041110038757324 -0.5388649702072144 0.022451000288128853 -0.8420929908752441
          -0.3350610136985779 0.3035230040550232 -0.8919680118560791 -0.45872700214385986 0.2088319957256317 -0.8636890053749084
          -0.4059959948062897 -0.0035429999697953463 -0.9138680100440979 -0.42132100462913513 0.040626998990774155 -0.9060009717941284
          -0.8910070061683655 -0.14983199536800385 -0.4285520017147064 -0.9907919764518738 -0.008263999596238136 -0.13514399528503418
          -0.8221759796142578 -0.09874899685382843 -0.5606020092964172 -0.9877390265464783 0.017697999253869057 0.15510700643062592
          -0.8218780159950256 0.006783999968320131 -0.5696229934692383 -0.9869160056114197 0.03407900035381317 -0.15759199857711792
          -0.9741780161857605 0.05458100140094757 0.21908700466156006 -0.6495670080184937 -0.12576299905776978 -0.7498310208320618
          -0.37917599081993103 -0.05676399916410446 -0.9235820174217224 -0.9345030188560486 -0.1644580066204071 -0.31568700075149536
          -0.9842219948768616 -0.17176499962806702 0.042475998401641846 -0.7118399739265442 -0.14693999290466309 -0.6867989897727966
          -0.48754799365997314 -0.676118016242981 0.5524150133132935 -0.9103299975395203 -0.2677839994430542 -0.31557899713516235
          -0.9780790209770203 -0.20009499788284302 -0.057645998895168304 0.1373080015182495 -0.15533199906349182 0.9782729744911194
          0.6518909931182861 0.0806329995393753 0.7540140151977539 0.6450150012969971 -0.010081999935209751 0.7641029953956604
          0.9781349897384644 0.14577700197696686 0.14832699298858643 0.9071959853172302 0.13324299454689026 0.3990510106086731
          0.8426539897918701 0.20350700616836548 -0.4985179901123047 0.5515990257263184 0.15767799317836761 -0.8190699815750122
          0.8179699778556824 0.09544199705123901 0.5672879815101624 -0.15703000128269196 -0.028387999162077904 -0.9871860146522522
          -0.3191390037536621 -0.01671599969267845 -0.9475610256195068 -0.596530020236969 0.031026000156998634 0.8019909858703613
          0.562175989151001 -0.003091000020503998 0.8270120024681091 0.6166179776191711 -0.22575800120830536 0.7541990280151367
          0.6494399905204773 -0.1018730029463768 0.7535579800605774 -0.08970700204372406 0.10242599993944168 0.9906880259513855
          0.2171739935874939 0.009379999712109566 0.9760879874229431 -0.5749819874763489 0.09193799644708633 0.8129839897155762
          0.9163339734077454 0.3902429938316345 0.08968400210142136 0.8865090012550354 0.45956099033355713 -0.05389700084924698
          0.9463580250740051 0.08052600175142288 0.3129259943962097 0.9875900149345398 0.056299999356269836 0.1466190069913864
          0.9089630246162415 -0.08085399866104126 0.4089620113372803 0.9997209906578064 -0.01847199909389019 -0.014721999876201153
          0.9723619818687439 0.02144099958240986 -0.23249199986457825 0.9961159825325012 -0.08574000000953674 -0.020049000158905983
          0.9181740283966064 -0.07892899960279465 -0.3882350027561188 0.9349579811096191 0.3023729920387268 0.18553699553012848
          0.5267720222473145 -0.10821200162172318 0.8430899977684021 0.7025150060653687 -0.014150000177323818 0.7115280032157898
          0.9460229873657227 -0.008047999814152718 0.3240010142326355 0.11966700106859207 0.5192530155181885 -0.8462010025978088
          -0.8210399746894836 -0.1780499964952469 -0.5423949956893921 -0.6887959837913513 0.013369999825954437 -0.7248309850692749
          -0.44670701026916504 0.11298099905252457 -0.8875179886817932 -0.49236300587654114 -0.07804299890995026 -0.8668839931488037
          -0.5173659920692444 0.17894700169563293 -0.8368459939956665 -0.46792900562286377 -0.11350400000810623 -0.8764470219612122
          -0.322750985622406 0.17433099448680878 -0.9302899837493896 -0.054545000195503235 0.06558799743652344 -0.9963549971580505
          -0.7944530248641968 -0.07709900289773941 -0.6024129986763 -0.7481439709663391 -0.21067999303340912 -0.6292009949684143
          -0.704131007194519 0.11206100136041641 0.7011719942092896 -0.9244009852409363 -0.18729999661445618 -0.33226698637008667
          -0.5422530174255371 0.08236800134181976 0.8361679911613464 -0.8673020005226135 -0.34550100564956665 0.35835200548171997
          -0.319938987493515 -0.07611799985170364 -0.9443759918212891 -0.4635489881038666 -0.10779400169849396 -0.8794900178909302
          -0.9566259980201721 -0.15245400369167328 -0.2482440024614334 -0.7960349917411804 -0.15106399357318878 -0.5860949754714966
          -0.43504101037979126 -0.09499000012874603 -0.8953859806060791 0.449427992105484 -0.7984780073165894 -0.4005579948425293
          0.3758530020713806 -0.033803001046180725 0.9260619878768921 -0.9233300089836121 -0.16687199473381042 -0.3458560109138489
          -0.467849999666214 -0.10690700262784958 -0.8773180246353149 -0.9663739800453186 -0.2191610038280487 -0.13450199365615845
          -0.9618399739265442 -0.17514100670814514 -0.21021300554275513 0.5041880011558533 0.297201007604599 0.8108429908752441
          0.7880269885063171 0.15931199491024017 0.5946710109710693 0.9744679927825928 0.20886799693107605 0.08238500356674194
          0.755882978439331 0.2206290066242218 -0.6164119839668274 0.9047380089759827 0.23914000391960144 0.352508008480072
          -0.06996800005435944 0.000826000003144145 -0.9975489974021912 0.3770579993724823 -0.4889970123767853 0.7865809798240662
          0.27613499760627747 -0.7593849897384644 0.5891379714012146 0.3397020101547241 -0.41775599122047424 0.8426640033721924
          -0.331167995929718 -0.3300679922103882 0.8839589953422546 0.21938000619411469 0.635233998298645 -0.7405070066452026
          0.8284639716148376 0.5265480279922485 -0.19077199697494507 0.8588770031929016 0.18700000643730164 0.47682398557662964
          0.9127320051193237 -0.3353610038757324 0.23335200548171997 0.7791270017623901 0.019745999947190285 0.6265550255775452
          0.9886119961738586 -0.059401001781225204 -0.13826799392700195 0.8806509971618652 -0.002457000082358718 -0.4737600088119507
          0.9114980101585388 -0.2920140027999878 -0.2896539866924286 0.9221000075340271 -0.19546200335025787 -0.33395498991012573
          0.918042004108429 -0.04970100149512291 -0.3933570086956024 0.8136730194091797 -0.11659500002861023 -0.5695099830627441
          0.9334800243377686 0.33629199862480164 0.12459199875593185 0.8739709854125977 0.4633060097694397 -0.14670400321483612
          0.5077970027923584 -0.04617699980735779 0.8602380156517029 0.1986899971961975 -0.22781400382518768 0.9532170295715332
          0.2180269956588745 -0.15227000415325165 0.9639909863471985 0.7862240076065063 0.028981000185012817 0.6172609925270081
          0.9961379766464233 0.0675560012459755 0.05609000101685524 0.9489139914512634 0.08063799887895584 -0.30505698919296265
          0.9125080108642578 0.01934099942445755 -0.4086019992828369 0.9341700077056885 -0.02950800023972988 -0.35560598969459534
          -0.7830309867858887 -0.2035609930753708 -0.5877280235290527 -0.7431060075759888 -0.09504999965429306 -0.6623889803886414
          -0.5597739815711975 -0.5148749947547913 -0.6492739915847778 -0.700764000415802 -0.3126029968261719 -0.6412559747695923
          -0.6324549913406372 -0.340923011302948 -0.6955379843711853 -0.5787919759750366 0.02721799910068512 -0.8150209784507751
          -0.4553770124912262 0.2762340009212494 -0.846360981464386 -0.4682599902153015 0.22002999484539032 -0.8557569980621338
          -0.6583060026168823 -0.12101399898529053 -0.7429590225219727 -0.5040630102157593 -0.36673998832702637 -0.7819349765777588
          0.7909709811210632 0.0177180003374815 -0.6115970015525818 -0.19018200039863586 0.13223199546337128 -0.972802996635437
          0.37437400221824646 -0.7686799764633179 -0.5186290144920349 0.943464994430542 -0.07966600358486176 -0.3217569887638092
          -0.7709069848060608 -0.17892000079154968 -0.6113020181655884 -0.8435199856758118 -0.24263200163841248 -0.4791710078716278
          -0.6533060073852539 -0.7238950133323669 -0.22173799574375153 -0.6580629944801331 -0.7464550137519836 -0.09878099709749222
          -0.20642299950122833 -0.9072110056877136 0.36654898524284363 -0.8708580136299133 -0.17516499757766724 -0.45926401019096375
          -0.34782999753952026 -0.10464899986982346 -0.9316989779472351 0.12697499990463257 0.08408399671316147 -0.9883360266685486
          -0.3233399987220764 -0.13534300029277802 -0.9365540146827698 0.43309399485588074 -0.5062649846076965 -0.7457380294799805
          0.8786510229110718 -0.18118900060653687 0.4417499899864197 0.9554409980773926 -0.10113900154829025 0.2773140072822571
          0.9271050095558167 0.16550999879837036 0.3362770080566406 0.7674300074577332 0.3112120032310486 0.5605340003967285
          0.49848100543022156 0.24918299913406372 0.8303160071372986 -0.6330860257148743 -0.43451499938964844 -0.6406239867210388
          -0.9032729864120483 -0.421752005815506 -0.07889100164175034 -0.2835719883441925 -0.15286099910736084 -0.9466890096664429
          -0.9568819999694824 -0.22641700506210327 -0.18196499347686768 -0.8296369910240173 -0.23278099298477173 -0.5074610114097595
          0.8158820271492004 0.2891770005226135 0.500711977481842 0.7920420169830322 0.27027198672294617 0.5473769903182983
          0.9531679749488831 0.28051701188087463 0.11305099725723267 0.7965199947357178 0.2387170046567917 -0.5554909706115723
          0.06938599795103073 -0.9736289978027344 0.2173279970884323 -0.126800999045372 -0.76767498254776 0.6281700134277344
          0.13260500133037567 -0.3222169876098633 0.9373319745063782 -0.451555997133255 0.27407199144363403 -0.849107027053833
          0.4331580102443695 0.5613800287246704 -0.7051429748535156 0.8477619886398315 0.15089599788188934 0.5084589719772339
          0.5502700209617615 -0.3940669894218445 0.7361479997634888 0.8086109757423401 0.05096700042486191 0.5861319899559021
          0.715444028377533 -0.07238300144672394 -0.694911003112793 0.7382490038871765 -0.3931399881839752 -0.548114001750946
          0.22758199274539948 -0.4480920135974884 -0.8645340204238892 0.7926329970359802 0.5225200057029724 -0.3141759932041168
          0.7207959890365601 0.0007099999929778278 0.6931470036506653 0.40729400515556335 -0.10388900339603424 0.9073690176010132
          -0.2726590037345886 -0.3081260025501251 0.9114360213279724 -0.3165160119533539 -0.35044100880622864 0.8814809918403625
          0.0626240000128746 -0.2337609976530075 0.9702749848365784 -0.31412601470947266 -0.3566559851169586 0.8798419833183289
          0.7944080233573914 0.06679800152778625 0.6036999821662903 0.9917299747467041 0.1283310055732727 0.0016980000073090196
          0.5448349714279175 0.08362899720668793 -0.8343629837036133 0.3309980034828186 -0.06089099869132042 -0.94166499376297
          0.44409000873565674 0.02148200012743473 -0.8957250118255615 0.48162901401519775 -0.10091999918222427 -0.8705450296401978
          -0.6454240083694458 -0.23586000502109528 -0.7264969944953918 -0.4117429852485657 -0.2786180078983307 -0.8676630258560181
          -0.10985500365495682 -0.780085027217865 -0.6159539818763733 -0.03454500064253807 -0.28416699171066284 -0.9581519961357117
          -0.03137499839067459 -0.6363620162010193 -0.7707520127296448 -0.894769012928009 -0.20754800736904144 -0.3953630030155182
          0.02426999993622303 -0.4677650034427643 0.8835200071334839 -0.887112021446228 -0.31293201446533203 -0.33927199244499207
          -0.7759760022163391 -0.18914300203323364 -0.6017370223999023 -0.7337120175361633 -0.4926359951496124 0.4679499864578247
          0.9808269739151001 -0.07462199777364731 -0.1800280064344406 0.5051810145378113 -0.011064000427722931 -0.8629419803619385
          0.2950829863548279 0.07273799926042557 -0.9526990056037903 -0.44440001249313354 -0.2504720091819763 -0.8600999712944031
          -0.42895999550819397 -0.2050050050020218 -0.8797540068626404 -0.2825169861316681 -0.38530799746513367 -0.8784769773483276
          0.8700219988822937 -0.4059959948062897 0.27969399094581604 0.5402839779853821 -0.7764350175857544 -0.32440999150276184
          0.38357099890708923 -0.11930199712514877 0.9157729744911194 0.7249050140380859 0.04601899906992912 0.687309980392456
          0.47224900126457214 -0.35926398634910583 0.8049290180206299 0.8710209727287292 0.15522700548171997 0.4660769999027252
          0.8635860085487366 0.3096649944782257 0.3979020118713379 0.893805980682373 0.2914330065250397 0.34084799885749817
          0.7927960157394409 0.10348500311374664 0.6006379723548889 0.580344021320343 0.11008399724960327 0.806896984577179
          0.7162169814109802 0.16135700047016144 0.6789669990539551 -0.28361600637435913 -0.44075798988342285 -0.8516420125961304
          -0.5548989772796631 -0.7143800258636475 -0.4263190031051636 -0.6869710087776184 -0.6179440021514893 -0.38238200545310974
          -0.8638539910316467 -0.28980299830436707 -0.4120340049266815 -0.6444720029830933 -0.2758060097694397 -0.7131530046463013
          0.9644989967346191 -0.06844600290060043 -0.2550620138645172 0.891414999961853 0.14009900391101837 0.43098899722099304
          0.9742090106010437 0.12975700199604034 -0.18460999429225922 -0.15898600220680237 -0.40683799982070923 0.8995590209960938
          -0.5968000292778015 0.2518320083618164 -0.7618470191955566 -0.9336190223693848 0.0812079980969429 -0.34894201159477234
          -0.25563400983810425 0.3676620125770569 -0.8941349983215332 0.6124140024185181 -0.18103699386119843 0.7695289850234985
          0.9497249722480774 0.16812700033187866 0.2641119956970215 -0.13209399580955505 -0.17713500559329987 -0.9752820134162903
          0.43074798583984375 0.5722450017929077 -0.6978470087051392 0.3722339868545532 -0.08779300004243851 0.9239770174026489
          -0.9147340059280396 -0.3848640024662018 0.12304899841547012 -0.8483790159225464 -0.4949890077114105 0.18771900236606598
          -0.5095160007476807 -0.4474569857120514 0.7349669933319092 0.08603200316429138 -0.1863030046224594 0.9787189960479736
          0.25667598843574524 0.19935500621795654 0.945713996887207 0.8648030161857605 0.31143099069595337 0.39386001229286194
          0.3866339921951294 0.12228900194168091 -0.914089024066925 0.8179349899291992 0.4065139889717102 -0.4070979952812195
          -0.212335005402565 -0.03036700002849102 -0.9767249822616577 -0.08331699669361115 -0.018936000764369965 -0.9963430166244507
          -0.40445101261138916 -0.08834999799728394 -0.9102820158004761 -0.5280309915542603 -0.19888600707054138 -0.8256070017814636
          -0.6707950234413147 -0.25326499342918396 -0.6970589756965637 -0.5750579833984375 -0.10871600359678268 -0.8108569979667664
          -0.3749789893627167 -0.16555699706077576 -0.9121299982070923 -0.9898340106010437 0.1410679966211319 -0.01812800019979477
          0.06042199954390526 -0.18664200603961945 0.980567991733551 0.2548609972000122 -0.4043860137462616 0.8783609867095947
          -0.8089960217475891 -0.2639029920101166 -0.5252429842948914 0.9810029864311218 -0.03423500061035156 -0.1909489929676056
          0.27459800243377686 -0.029069999232888222 -0.9611200094223022 -0.4427739977836609 -0.20089399814605713 -0.8738380074501038
          -0.35656100511550903 -0.1000330001115799 -0.9289010167121887 0.3344930112361908 -0.6683409810066223 -0.6644049882888794
          0.1121160015463829 -0.5778800249099731 -0.8083840012550354 -0.6594330072402954 -0.431412011384964 -0.6156560182571411
          -0.8368160128593445 -0.1959570050239563 -0.5112130045890808 -0.7228990197181702 -0.294297993183136 -0.6251440048217773
          -0.42922499775886536 -0.6934720277786255 -0.5786730051040649 0.10785800218582153 -0.9321969747543335 0.3455069959163666
          0.2022390067577362 0.009078999981284142 0.9792940020561218 0.472460001707077 0.15174899995326996 0.8681899905204773
          0.7722179889678955 0.22357900440692902 0.5947200059890747 -0.3032279908657074 -0.21161499619483948 0.9291239976882935
          -0.22270700335502625 -0.5783950090408325 0.7847679853439331 0.8773869872093201 0.3363710045814514 0.3421210050582886
          0.8589500188827515 0.06200199946761131 0.5082929730415344 0.859682023525238 -0.04711399972438812 0.5086529850959778
          0.8272479772567749 -0.07368800044059753 0.556984007358551 0.7227389812469482 -0.08569400012493134 0.6857879757881165
          0.7792850136756897 -0.00020500000391621143 0.6266700029373169 0.8762530088424683 0.06922099739313126 0.47685301303863525
          0.11010400205850601 -0.8166869878768921 -0.5664799809455872 -0.10729900002479553 -0.925898015499115 -0.36221399903297424
          -0.7699069976806641 -0.3418799936771393 -0.5388510227203369 -0.14205299317836761 -0.8964499831199646 -0.41975900530815125
          -0.5130620002746582 -0.5352879762649536 -0.670993983745575 0.9001510143280029 0.08584000170230865 0.42703500390052795
          0.9429649710655212 0.09436099976301193 0.31923800706863403 0.3833659887313843 -0.1567849963903427 -0.9101920127868652
          0.9908720254898071 0.022494999691843987 -0.13291500508785248 -0.8616669774055481 0.13345399498939514 -0.48961299657821655
          -0.3186819851398468 0.4336940050125122 -0.8428230285644531 0.4694029986858368 0.2899239957332611 -0.8340290188789368
          0.9276319742202759 0.16138699650764465 -0.33682700991630554 0.6664739847183228 -0.31551599502563477 0.6754720211029053
          0.893779993057251 0.27607300877571106 -0.35346999764442444 0.9472690224647522 -0.05864600092172623 0.3150259852409363
          0.1391330063343048 0.3523859977722168 -0.9254549741744995 -0.8304579854011536 -0.44356998801231384 -0.337022989988327
          0.5213680267333984 -0.09439899772405624 0.8480939865112305 -0.9188519716262817 -0.39010998606681824 0.05938100069761276
          -0.8512240052223206 -0.448870986700058 -0.2719059884548187 0.5936470031738281 0.1159140020608902 0.7963340282440186
          0.6137869954109192 0.6190059781074524 0.489996999502182 0.18990099430084229 0.5006020069122314 0.8445919752120972
          0.06688600033521652 0.2846989929676056 0.9562810063362122 0.7760840058326721 0.6301609873771667 0.024299999698996544
          0.624845027923584 0.6444129943847656 -0.44079598784446716 -0.6886029839515686 -0.09303499758243561 -0.7191449999809265
          -0.14936299622058868 0.3503600060939789 -0.9246289730072021 0.27473801374435425 0.5303530097007751 -0.8020250201225281
          -0.6550779938697815 -0.1848990023136139 -0.732587993144989 -0.6528599858283997 0.09397000074386597 0.7516270279884338
          -0.9671869874000549 0.20955899357795715 -0.14364400506019592 0.4122210144996643 -0.30298200249671936 0.8592290282249451
          0.23575399816036224 -0.3557850122451782 0.9043430089950562 0.2745240032672882 -0.6037729978561401 0.7483940124511719
          0.38829800486564636 -0.7519699931144714 0.5326970219612122 -0.31204599142074585 -0.2999820113182068 -0.9014639854431152
          -0.3066349923610687 -0.1935109943151474 -0.9319490194320679 -0.3059839904308319 -0.12892800569534302 -0.943265974521637
          -0.32996198534965515 -0.15282399952411652 -0.9315419793128967 0.896694004535675 -0.42167899012565613 -0.13463999330997467