<?xml version="1.0"?>
<VTKFile type="PolyData" version="0.1" byte_order="LittleEndian" header_type="UInt32" compressor="vtkZLibDataCompressor">
  <PolyData>
    <Piece NumberOfPoints="4113" NumberOfVerts="0" NumberOfLines="0" NumberOfStrips="0" NumberOfPolys="8222">
      <PointData Normals="Normals">
        <DataArray type="Float32" Name="Normals" NumberOfComponents="3" format="ascii" RangeMin="0.9999992537812608" RangeMax="1.0000007713423094">
          -0.6190419793128967 -0.7568690180778503 -0.2096090018749237 -0.6125959753990173 -0.7724519968032837 -0.16746200621128082
          -0.7036610245704651 -0.7079539895057678 -0.060524001717567444 -0.5170300006866455 -0.820967972278595 -0.24226300418376923
          -0.5160350203514099 -0.7907770276069641 -0.32920899987220764 -0.5252469778060913 -0.8364530205726624 -0.15640300512313843
          -0.5638960003852844 -0.7997699975967407 -0.20588800311088562 -0.6429799795150757 -0.7654280066490173 -0.026406999677419662
          -0.7205510139465332 -0.6869800090789795 0.0941540002822876 -0.543470025062561 -0.836355984210968 -0.07175499945878983
          -0.7763890027999878 -0.6137760281562805 -0.1431729942560196 -0.8137630224227905 -0.5802479982376099 0.033188000321388245
          -0.829459011554718 -0.5570060014724731 0.041735999286174774 -0.7713189721107483 -0.6315209865570068 0.07904999703168869
          -0.8440449833869934 -0.5352150201797485 -0.03364900127053261 0.9537339806556702 -0.27648499608039856 -0.11810199916362762
          0.7463039755821228 -0.5902360081672668 -0.30765500664711 -0.6194559931755066 -0.7069839835166931 -0.34124401211738586
          -0.4303019940853119 -0.8546010255813599 -0.2906849980354309 -0.3938109874725342 -0.7932170033454895 -0.4644559919834137
          -0.5066760182380676 -0.7158210277557373 -0.4805000126361847 -0.317562997341156 -0.695501983165741 -0.6445389986038208
          -0.4125939905643463 -0.8884850144386292 -0.20089800655841827 0.43339699506759644 -0.8098809719085693 -0.3952980041503906
          -0.6919479966163635 -0.6655949950218201 -0.2796260118484497 -0.5500890016555786 -0.8298270106315613 0.09375700354576111
          -0.5410289764404297 -0.8401709794998169 -0.03741399943828583 -0.5932890176773071 -0.7656909823417664 0.24844500422477722
          -0.7406460046768188 -0.6337900161743164 0.22305400669574738 -0.44400501251220703 -0.894910991191864 -0.04465499892830849
          -0.7974089980125427 -0.5553069710731506 -0.23616400361061096 -0.7352330088615417 -0.5966110229492188 -0.3216949999332428
          -0.8661659955978394 -0.48357701301574707 -0.126133993268013 -0.8975350260734558 -0.42534101009368896 0.11626199632883072
          -0.84334397315979 -0.5224390029907227 0.12580999732017517 -0.899474024772644 -0.4358130097389221 0.03184700012207031
          -0.7798629999160767 -0.604578971862793 0.16216500103473663 -0.9239450097084045 -0.38213101029396057 0.017347000539302826
          -0.9021610021591187 -0.41866201162338257 -0.10406100004911423 -0.5215619802474976 -0.746487021446228 -0.41319501399993896
          -0.2622529864311218 -0.8834559917449951 -0.38823699951171875 -0.33952298760414124 -0.8407269716262817 -0.42178499698638916
          -0.267892986536026 -0.7343260049819946 -0.6236979961395264 -0.21088799834251404 -0.6598110198974609 -0.721231997013092
          -0.36820000410079956 -0.6315150260925293 -0.6823620200157166 -0.5039399862289429 -0.5731279850006104 -0.6461960077285767
          -0.6454669833183289 -0.6406390070915222 -0.41587701439857483 -0.2940259873867035 -0.5001580119132996 -0.8144879937171936
          -0.19798199832439423 -0.5220680236816406 -0.8296070098876953 -0.36726000905036926 -0.9049230217933655 -0.21502399444580078
          -0.6853179931640625 -0.6286529898643494 -0.3676069974899292 -0.38999301195144653 -0.9186530113220215 0.06310100108385086
          -0.3894450068473816 -0.8817980289459229 0.26601800322532654 -0.4758020043373108 -0.8028619885444641 0.35920199751853943
          -0.5371519923210144 -0.7600209712982178 0.3658370077610016 -0.6649640202522278 -0.6856690049171448 0.29610899090766907
          -0.8219950199127197 -0.5190759897232056 0.2342739999294281 -0.6692010164260864 -0.6330530047416687 0.3891200125217438
          -0.27155598998069763 -0.9607660174369812 -0.05644400045275688 -0.7422230243682861 -0.4921109974384308 -0.45489799976348877
          -0.8615660071372986 -0.44405901432037354 -0.2460000067949295 -0.6578969955444336 -0.5480340123176575 -0.5165560245513916
          -0.9402130246162415 -0.31853899359703064 0.12054900079965591 -0.9164789915084839 -0.35205501317977905 0.19006100296974182
          -0.9333750009536743 -0.3184730112552643 0.16548499464988708 -0.8735359907150269 -0.440436989068985 0.20724399387836456
          -0.9225770235061646 -0.30168500542640686 0.2404939979314804 -0.9375709891319275 -0.34696701169013977 -0.02397800050675869
          -0.9665259718894958 -0.25656500458717346 0.0015320000238716602 -0.9625189900398254 -0.27111899852752686 -0.007240999955683947
          -0.9429799914360046 -0.28313198685646057 -0.17499999701976776 -0.2849709987640381 -0.9160280227661133 -0.2822830080986023
          -0.02771800011396408 -0.8945779800415039 -0.44605201482772827 -0.12028100341558456 -0.9541869759559631 -0.27396899461746216
          -0.16675899922847748 -0.9658709764480591 -0.19820499420166016 -0.2741369903087616 -0.8104940056800842 -0.5176370143890381
          -0.14296099543571472 -0.7596139907836914 -0.6344680190086365 -0.1358110010623932 -0.5820109844207764 -0.8017600178718567
          -0.13830099999904633 -0.5098059773445129 -0.8490999937057495 -0.10722599923610687 -0.5191270112991333 -0.847944974899292
          -0.4892970025539398 -0.49519801139831543 -0.7178909778594971 -0.23772700130939484 -0.2615489959716797 -0.9354559779167175
          -0.3762980103492737 -0.29023200273513794 -0.8798670172691345 -0.17114399373531342 -0.2863200008869171 -0.9427250027656555
          -0.22507800161838531 -0.951229989528656 -0.2109519988298416 -0.2563380002975464 -0.9333270192146301 -0.25137799978256226
          -0.23660500347614288 -0.9681910276412964 0.08138299733400345 -0.20809799432754517 -0.9308609962463379 0.3003210127353668
          -0.2804949879646301 -0.8589100241661072 0.42848101258277893 -0.4089899957180023 -0.8311020135879517 0.3768250048160553
          -0.3870309889316559 -0.8023340106010437 0.45438700914382935 -0.4684309959411621 -0.7942619919776917 0.3869369924068451
          -0.5183550119400024 -0.7367569804191589 0.4341619908809662 -0.8162630200386047 -0.4903329908847809 0.305431991815567
          -0.6904659867286682 -0.5233269929885864 0.4993849992752075 -0.46007201075553894 -0.6219419836997986 0.6336579918861389
          -0.4457789957523346 -0.7235180139541626 0.5270699858665466 -0.0656760036945343 -0.9975119829177856 0.025634000077843666
          -0.19194400310516357 -0.9763209819793701 -0.09977100044488907 -0.09279900044202805 -0.992904007434845 -0.07436999678611755
          0.030778000131249428 -0.998881995677948 -0.03587400168180466 -0.6106690168380737 -0.44383999705314636 -0.6558120250701904
          -0.684283971786499 -0.39566200971603394 -0.6125419735908508 -0.6037189960479736 -0.418148010969162 -0.6787310242652893
          -0.8553029894828796 -0.3711470067501068 -0.361532986164093 -0.8036550283432007 -0.36235299706459045 -0.4720579981803894
          -0.5168600082397461 -0.36777499318122864 -0.773045003414154 -0.9289469718933105 -0.2579610049724579 0.2655459940433502
          -0.9898300170898438 -0.08003000169992447 0.1176069974899292 -0.9823039770126343 -0.07201100140810013 0.17289499938488007
          -0.9203640222549438 -0.33156201243400574 0.20735600590705872 -0.8567590117454529 -0.42248600721359253 0.29575300216674805
          -0.8987810015678406 -0.2070160061120987 0.3864409923553467 -0.9044569730758667 -0.16978700459003448 0.3913179934024811
          -0.9233189821243286 -0.3138769865036011 0.22127699851989746 -0.9098979830741882 -0.21541300415992737 0.35451701283454895
          -0.9123920202255249 -0.270018994808197 0.3076210021972656 -0.967894971370697 -0.20145900547504425 0.1503089964389801
          -0.9765390157699585 -0.21334600448608398 -0.029249999672174454 -0.9445430040359497 -0.285057008266449 -0.16303600370883942
          -0.8844019770622253 -0.2676190137863159 -0.3823769986629486 -0.07062800228595734 -0.9308429956436157 -0.3585279881954193
          0.2273070067167282 -0.9017879962921143 -0.36757200956344604 0.13958099484443665 -0.9608489871025085 -0.23934400081634521
          0.018178999423980713 -0.8445050120353699 -0.5352389812469482 -0.0495310015976429 -0.5941470265388489 -0.8028299808502197
          -0.003713000100106001 -0.7394809722900391 -0.6731669902801514 -0.10749299824237823 -0.42023101449012756 -0.9010279774665833
          -0.1005920022726059 -0.45848700404167175 -0.8829900026321411 -0.11163700371980667 -0.32202398777008057 -0.9401260018348694
          -0.23028500378131866 0.0002099999983329326 -0.9731230139732361 -0.21770800650119781 -0.017152000218629837 -0.975862979888916
          -0.3418309986591339 -0.08466000109910965 -0.9359400272369385 -0.1393429934978485 -0.06523899734020233 -0.9880930185317993
          -0.09851200133562088 -0.9630159735679626 -0.2507910132408142 -0.10619200021028519 -0.9803500175476074 0.16624300181865692
          -0.22880099713802338 -0.8694519996643066 0.43783900141716003 0.013253999873995781 -0.9477599859237671 0.31870999932289124
          -0.2186480015516281 -0.7866500020027161 0.5773860216140747 -0.34211400151252747 -0.677594006061554 0.6510170102119446
          -0.4272240102291107 -0.7813079953193665 0.4550139904022217 -0.5346279740333557 -0.472786009311676 0.7004619836807251
          -0.5709699988365173 -0.4005970060825348 0.7166000008583069 -0.6662709712982178 -0.39267200231552124 0.6339499950408936
          -0.7845399975776672 -0.36305001378059387 0.5026839971542358 -0.41430801153182983 -0.4236299991607666 0.8055350184440613
          0.21856899559497833 -0.9643880128860474 0.14893800020217896 0.3022089898586273 -0.952256977558136 -0.04330800101161003
          -0.49883899092674255 -0.3348439931869507 -0.7993990182876587 -0.46769899129867554 -0.28679201006889343 -0.8360670208930969
          -0.45741400122642517 -0.3658539950847626 -0.8105080127716064 -0.5563380122184753 -0.2836169898509979 -0.7810570001602173
          -0.7260910272598267 -0.2827189862728119 -0.626787006855011 -0.30710500478744507 -0.30864399671554565 -0.9002360105514526
          -0.3239310085773468 -0.13762100040912628 -0.9360179901123047 -0.9800630211830139 -0.103752002120018 0.16944299638271332
          -0.9933429956436157 0.051089998334646225 0.10324099659919739 -0.9801740050315857 0.07766299694776535 0.18228299915790558
          -0.9724689722061157 0.08979800343513489 0.21503399312496185 -0.984263002872467 -0.04837799817323685 0.16995899379253387
          -0.999538004398346 -0.020805999636650085 0.022160999476909637 -0.8812419772148132 -0.35684099793434143 0.30996400117874146
          -0.7753109931945801 -0.10590600222349167 0.6226369738578796 -0.7782589793205261 -0.16106699407100677 0.6069350242614746
          -0.8574439883232117 -0.24591800570487976 0.45201200246810913 -0.8093050122261047 -0.12617799639701843 0.5736759901046753
          -0.809673011302948 -0.2707740068435669 0.5206829905509949 -0.9501550197601318 -0.278313010931015 0.14052799344062805
          -0.9358289837837219 -0.27924200892448425 0.21505600214004517 -0.9826610088348389 -0.1486710011959076 -0.11079400032758713
          -0.9674019813537598 -0.23615700006484985 -0.09145700186491013 -0.9809139966964722 -0.16377900540828705 0.10480599850416183
          -0.8795449733734131 -0.4031369984149933 -0.2527480125427246 -0.8506320118904114 -0.3097720146179199 -0.42481398582458496
          -0.9647840261459351 -0.25694799423217773 0.056292999535799026 -0.9217789769172668 -0.36588799953460693 -0.12825700640678406
          -0.9673560261726379 -0.2523849904537201 0.022890999913215637 0.442999005317688 -0.8871930241584778 -0.1289989948272705
          0.45597898960113525 -0.8789839744567871 -0.13953399658203125 0.32728299498558044 -0.8897809982299805 -0.31808000802993774
          0.24277299642562866 -0.8929759860038757 -0.37902000546455383 0.11631499975919724 -0.8435500264167786 -0.5243039727210999
          0.3793579936027527 -0.908843994140625 -0.17346599698066711 0.5808809995651245 -0.7986890077590942 -0.15707699954509735
          0.17513899505138397 -0.6827070116996765 -0.7093930244445801 0.010219999589025974 -0.550216019153595 -0.8349599838256836
          -0.04672899842262268 -0.44362300634384155 -0.8949940204620361 -0.05119600147008896 -0.3009989857673645 -0.9522489905357361
          0.009332999587059021 -0.17813199758529663 -0.9839619994163513 -0.19817599654197693 -0.24337300658226013 -0.9494709968566895
          -0.10419800132513046 -0.08360300213098526 -0.9910359978675842 -0.1715800017118454 0.004342999774962664 -0.9851610064506531
          -0.09483899921178818 0.004792000167071819 -0.995481014251709 -0.1754090040922165 -0.030639000236988068 -0.9840189814567566
          -0.22106200456619263 -0.009593999944627285 -0.9752129912376404 -0.08747199922800064 -0.894802987575531 0.43780800700187683
          -0.004238000139594078 -0.8357359766960144 0.549115002155304 0.27557000517845154 -0.8608649969100952 0.4277530014514923
          0.15553200244903564 -0.8494390249252319 0.5042459964752197 -0.0037579999770969152 -0.7943630218505859 0.6074309945106506
          -0.05956900119781494 -0.7072380185127258 0.7044609785079956 -0.2717039883136749 -0.6290850043296814 0.728305995464325
          -0.29328399896621704 -0.5193700194358826 0.8026450276374817 -0.13390299677848816 -0.5186589956283569 0.8444309830665588
          -0.505856990814209 -0.3391770124435425 0.7931380271911621 -0.5965610146522522 -0.3113979995250702 0.7396939992904663
          -0.5654770135879517 -0.3023679852485657 0.7673400044441223 -0.5106490254402161 -0.26436498761177063 0.818136990070343
          -0.5509240031242371 -0.32021600008010864 0.7706779837608337 -0.6376940011978149 -0.21024499833583832 0.7410420179367065
          -0.682515025138855 -0.25189700722694397 0.6860910058021545 -0.6398249864578247 -0.18331600725650787 0.7463369965553284
          -0.3154120147228241 -0.3966520130634308 0.8620799779891968 -0.39251598715782166 -0.19130200147628784 0.8996300101280212
          -0.33550700545310974 -0.29839301109313965 0.893530011177063 0.33212700486183167 -0.9430840015411377 0.01682399958372116
          0.3960930109024048 -0.9175400137901306 0.03506699949502945 0.37651100754737854 -0.8622789978981018 0.3386949896812439
          0.4150350093841553 -0.894199013710022 0.1677909940481186 0.8246030211448669 -0.5655840039253235 -0.012006999924778938
          -0.22997400164604187 -0.18038199841976166 -0.9563339948654175 -0.20194299519062042 -0.2548910081386566 -0.9456480145454407
          -0.3532620072364807 -0.1956689953804016 -0.9148330092430115 -0.4712649881839752 -0.20803800225257874 -0.857105016708374
          -0.6514649987220764 -0.34632399678230286 -0.6750209927558899 -0.48583000898361206 -0.28874701261520386 -0.8249819874763489
          -0.005135999992489815 -0.1930920034646988 -0.9811670184135437 -0.9916350245475769 -0.05719099938869476 -0.11571300029754639
          -0.9976130127906799 -0.0672139972448349 -0.01580600067973137 -0.9879270195960999 -0.05335000157356262 0.14544500410556793
          -0.9728339910507202 -0.16898800432682037 0.15823400020599365 -0.9684929847717285 -0.14301200211048126 0.2038860023021698
          -0.601302981376648 -0.0328110009431839 0.798346996307373 -0.6249669790267944 -0.042493000626564026 0.7794939875602722
          -0.7001820206642151 -0.10230399668216705 0.7065969705581665 -0.6357250213623047 -0.3783169984817505 0.672851026058197
          -0.517507016658783 -0.18883199989795685 0.8345829844474792 -0.8637030124664307 -0.33803701400756836 0.37382999062538147
          -0.8982660174369812 -0.3327000141143799 0.28710299730300903 -0.9658719897270203 -0.25894200801849365 0.006391000002622604
          -0.9798930287361145 -0.15758700668811798 -0.12237200140953064 -0.9369170069694519 -0.2924090027809143 0.1915300041437149
          -0.9790980219841003 -0.20211100578308105 -0.022758999839425087 -0.9544730186462402 -0.21813100576400757 -0.20347200334072113
          -0.9590039849281311 -0.2355470061302185 -0.1575690060853958 -0.9677450060844421 -0.1315940022468567 0.21483199298381805
          -0.936834990978241 -0.10975900292396545 0.33210501074790955 -0.8083810210227966 -0.4462980031967163 -0.3838450014591217
          -0.9517359733581543 -0.304625004529953 -0.03745200112462044 -0.9028519988059998 -0.3927069902420044 -0.17504100501537323
          -0.974835991859436 -0.1806419938802719 0.13062499463558197 -0.9711679816246033 -0.11603599786758423 0.2082500010728836
          -0.9791070222854614 -0.18334899842739105 0.0879329964518547 0.9054930210113525 -0.42267298698425293 -0.037808001041412354
          0.34236299991607666 -0.9375759959220886 -0.06115499883890152 0.7991129755973816 -0.6010640263557434 -0.011807999573647976
          0.4174700081348419 -0.9084889888763428 0.019158000126481056 0.5489590167999268 -0.8355799913406372 0.021205000579357147
          0.6560609936714172 -0.742451012134552 -0.13546299934387207 0.6688510179519653 -0.7433410286903381 0.009039999917149544
          0.4285750091075897 -0.843222975730896 -0.32449600100517273 0.23116500675678253 -0.8788009881973267 -0.4174579977989197
          0.24729900062084198 -0.8154590129852295 -0.5233259797096252 0.44401800632476807 -0.6744970083236694 -0.5898309946060181
          0.21110500395298004 -0.512611985206604 -0.8322640061378479 0.4453360140323639 -0.7466130256652832 -0.49421200156211853
          0.3713900148868561 -0.7753000259399414 -0.5108619928359985 0.0732870027422905 -0.5236709713935852 -0.8487629890441895
          0.03663099929690361 -0.3986879885196686 -0.9163550138473511 -0.12992599606513977 -0.28151199221611023 -0.950721025466919
          0.05851199850440025 -0.11339899897575378 -0.9918249845504761 -0.29523301124572754 -0.12146800011396408 -0.9476730227470398
          -0.19777199625968933 -0.04610300064086914 -0.9791629910469055 0.01270500011742115 -0.07709600031375885 -0.9969429969787598
          -0.01721999980509281 -0.1543239951133728 -0.9878699779510498 -0.0847880020737648 -0.15456099808216095 -0.9843379855155945
          -0.3116919994354248 0.011355999857187271 -0.9501150250434875 -0.277334988117218 -0.03891799971461296 -0.9599850177764893
          -0.07719500362873077 -0.059432998299598694 -0.9952430129051208 -0.18187999725341797 0.030215000733733177 -0.9828569889068604
          0.3487420082092285 -0.7941949963569641 0.49762800335884094 0.1784289926290512 -0.7655450105667114 0.6181460022926331
          0.4294529855251312 -0.8032519817352295 0.4127419888973236 0.05094200000166893 -0.6608549952507019 0.7487829923629761
          -0.167835995554924 -0.5486360192298889 0.8190420269966125 -0.30160799622535706 -0.4765990078449249 0.825764000415802
          0.3403320014476776 -0.3442409932613373 0.8750270009040833 0.6124470233917236 -0.2842479944229126 0.7376390099525452
          -0.5618540048599243 -0.17219600081443787 0.809116005897522 -0.4192520081996918 -0.03452799841761589 0.9072129726409912
          0.19937600195407867 -0.13104300200939178 0.9711210131645203 0.7496640086174011 -0.1786690056324005 0.6372449994087219
          -0.508243978023529 -0.0009270000155083835 0.8612120151519775 0.7512099742889404 -0.0640610009431839 0.6569470167160034
          -0.5541989803314209 -0.044714998453855515 0.8311820030212402 -0.08500699698925018 -0.19077399373054504 0.9779459834098816
          -0.29744601249694824 -0.0075530000030994415 0.954708993434906 0.47549599409103394 -0.8793349862098694 0.025942999869585037
          0.4977389872074127 -0.8307390213012695 0.24925599992275238 0.5532820224761963 -0.8065789937973022 0.2081100046634674
          -0.08540499955415726 -0.1794780045747757 -0.9800480008125305 -0.2199530005455017 -0.25228598713874817 -0.9423230290412903
          -0.4533669948577881 -0.45497700572013855 -0.7664560079574585 -0.6738229990005493 -0.4939830005168915 -0.5494940280914307
          -0.9620800018310547 -0.26164600253105164 -0.07709799706935883 -0.9654390215873718 -0.26002800464630127 -0.017687000334262848
          -0.9769520163536072 -0.21054500341415405 0.03514900058507919 -0.973501980304718 -0.10124800354242325 0.2050430029630661
          -0.42850300669670105 0.026309000328183174 0.9031569957733154 -0.37704500555992126 -0.025752000510692596 0.925836980342865
          -0.5437970161437988 -0.0742110013961792 0.8359289765357971 -0.47457998991012573 -0.3727779984474182 0.7973769903182983
          -0.7594389915466309 -0.4040060043334961 0.5099340081214905 -0.594078004360199 -0.4204980134963989 0.6857489943504333
          -0.16983400285243988 -0.20846900343894958 0.9631699919700623 -0.3866020143032074 -0.34550800919532776 0.8550810217857361
          -0.9667289853096008 -0.20498399436473846 0.1530279964208603 -0.874455988407135 -0.2736169993877411 0.40057501196861267
          -0.9719840288162231 -0.1376969963312149 -0.19049100577831268 -0.9851160049438477 -0.11878599971532822 -0.12424000352621078
          -0.9751930236816406 -0.1913049966096878 -0.11136200278997421 -0.9614359736442566 -0.12522800266742706 -0.24486400187015533
          -0.9682450294494629 -0.1242929995059967 -0.21691399812698364 -0.9853749871253967 -0.10272999852895737 -0.13595299422740936
          -0.9527410268783569 -0.2545180022716522 -0.16584700345993042 -0.9754610061645508 -0.14292800426483154 -0.16747300326824188
          -0.9855149984359741 -0.09893199801445007 -0.1377439945936203 -0.8087819814682007 -0.4990220069885254 -0.31120699644088745
          -0.9888489842414856 -0.058122001588344574 0.1371150016784668 -0.9834480285644531 -0.17510400712490082 -0.04656900092959404
          -0.9434630274772644 -0.26267701387405396 -0.2021850049495697 0.5875809788703918 -0.8024230003356934 0.1042340025305748
          0.72919100522995 -0.6828029751777649 -0.04538799822330475 0.5843549966812134 -0.7420690059661865 -0.3284260034561157
          0.7276620268821716 -0.6589199900627136 -0.19061100482940674 0.7524880170822144 -0.6514289975166321 -0.09696000069379807
          0.7031289935112 -0.6832200288772583 0.1970279961824417 0.7749990224838257 -0.6318269968032837 0.013061000034213066
          0.7640010118484497 -0.6449379920959473 0.018904000520706177 0.8465930223464966 -0.528436005115509 0.06352899968624115
          0.5195329785346985 -0.5216479897499084 -0.6767339706420898 0.6676070094108582 -0.5758860111236572 -0.4718649983406067
          0.5624719858169556 -0.7105439901351929 -0.4227930009365082 0.08364199846982956 -0.32577699422836304 -0.941739022731781
          0.32134100794792175 -0.4199709892272949 -0.8487430214881897 -0.13084299862384796 -0.22404000163078308 -0.9657570123672485
          -0.2636379897594452 -0.07626499980688095 -0.961601972579956 -0.23278400301933289 -0.06541600078344345 -0.9703260064125061
          0.0014909999445080757 -0.1887730062007904 -0.9820200204849243 0.012733999639749527 -0.1005999967455864 -0.994845986366272
          -0.24719800055027008 0.026366999372839928 -0.9686059951782227 -0.19707199931144714 0.07138200104236603 -0.9777870178222656
          -0.005615000147372484 -0.050693001598119736 -0.9986990094184875 0.5298920273780823 -0.7433339953422546 0.40825098752975464
          0.418040007352829 -0.7298060059547424 0.5409489870071411 0.5071219801902771 -0.7068970203399658 0.49307599663734436
          0.1890600025653839 -0.6922069787979126 0.696494996547699 0.22409400343894958 -0.605102002620697 0.7639589905738831
          0.3738110065460205 -0.6268399953842163 0.6836199760437012 -0.011277999728918076 -0.5169519782066345 0.8559399843215942
          0.11394800245761871 -0.6056950092315674 0.7874959707260132 -0.28778401017189026 -0.3849070072174072 0.876941978931427
          -0.15440300107002258 -0.33667001128196716 0.9288769960403442 -0.29930299520492554 -0.35744500160217285 0.8846750259399414
          -0.24917800724506378 -0.23803399503231049 0.9387490153312683 -0.08064299821853638 -0.17129799723625183 0.9819129705429077
          0.793487012386322 -0.15594899654388428 0.5882670283317566 -0.38409098982810974 0.14192600548267365 0.9123219847679138
          -0.41171500086784363 0.09019599854946136 0.9068379998207092 -0.29907700419425964 -0.03935299813747406 0.9534170031547546
          -0.24647299945354462 -0.17176499962806702 0.95380699634552 -0.41658300161361694 0.06525400280952454 0.9067530035972595
          -0.4459179937839508 0.13113300502300262 0.8854159712791443 -0.23920300602912903 -0.12705500423908234 0.9626209735870361
          -0.18044200539588928 -0.059978000819683075 0.9817550182342529 0.6866729855537415 -0.6428920030593872 0.33936598896980286
          -0.01789800077676773 -0.19520999491214752 -0.980597972869873 0.02948700077831745 -0.30277198553085327 -0.9526069760322571
          -0.0501989983022213 -0.4863330125808716 -0.8723300099372864 -0.558830976486206 -0.6042140126228333 -0.5680080056190491
          -0.39652299880981445 -0.5812140107154846 -0.7106059789657593 -0.9918349981307983 -0.11809399724006653 -0.04813599959015846
          -0.994799017906189 -0.05434900149703026 0.08614899963140488 -0.9950559735298157 0.06283300369977951 0.07690799981355667
          -0.25725600123405457 0.016147000715136528 0.9662089943885803 -0.24474400281906128 -0.08045700192451477 0.9662439823150635
          -0.3186129927635193 -0.3824160099029541 0.8673200011253357 -0.4732719957828522 -0.5020890235900879 0.7238240242004395
          -0.6776660084724426 -0.4469110071659088 0.5839849710464478 -0.35725298523902893 -0.4374530017375946 0.8252300024032593
          -0.2807379961013794 -0.31367599964141846 0.9070799946784973 -0.11687999963760376 -0.24616099894046783 0.9621559977531433
          -0.2303439974784851 -0.19230200350284576 0.953918993473053 0.6286420226097107 -0.04605799913406372 0.7763299942016602
          0.7941190004348755 -0.09910199791193008 0.5996289849281311 -0.9394760131835938 -0.18375800549983978 0.28916800022125244
          -0.9652100205421448 -0.1219400018453598 0.23130300641059875 -0.9954450130462646 -0.04261200129985809 0.08528199791908264
          -0.6977949738502502 -0.4098219871520996 0.5874760150909424 -0.8078619837760925 -0.2651039958000183 0.5263820290565491
          -0.920074999332428 -0.12558500468730927 0.37106698751449585 -0.9649850130081177 -0.10260699689388275 -0.2414039969444275
          -0.996271014213562 -0.07275500148534775 -0.04638500139117241 0.13898299634456635 -0.48718899488449097 -0.8621659874916077
          -0.952347993850708 -0.10110100358724594 -0.28777098655700684 0.08786600083112717 -0.5961160063743591 -0.7980759739875793
          -0.9846169948577881 -0.09717299789190292 -0.14521099627017975 -0.9354730248451233 -0.05108100175857544 -0.34968701004981995
          -0.993183970451355 0.07459700107574463 -0.0895560011267662 -0.93327397108078 -0.07474599778652191 -0.35130199790000916
          -0.6933150291442871 -0.5598040223121643 -0.4537990093231201 -0.8031269907951355 -0.4114849865436554 -0.4308910071849823
          -0.8911070227622986 -0.3384239971637726 -0.3023200035095215 -0.9982979893684387 0.014024999924004078 0.05661100149154663
          -0.996815025806427 -0.03626900166273117 -0.07103200256824493 -0.9576079845428467 -0.15536199510097504 -0.24258999526500702
          0.6765050292015076 -0.6457489728927612 -0.3540480136871338 0.8114989995956421 -0.48673000931739807 -0.32336199283599854
          0.8181300163269043 -0.5376759767532349 -0.20388199388980865 0.7871969938278198 -0.6063479781150818 -0.11252699792385101
          0.7146130204200745 -0.6958400011062622 -0.07165700197219849 0.9354100227355957 -0.33721399307250977 0.10627499967813492
          0.7294710278511047 -0.6265379786491394 0.27445098757743835 0.7487459778785706 -0.6617810130119324 -0.037765998393297195
          0.8442249894142151 -0.5354030132293701 0.025047000497579575 0.8552049994468689 -0.5179129838943481 -0.019739000126719475
          0.882610023021698 -0.46891099214553833 0.03348900005221367 0.9648159742355347 -0.25820499658584595 0.04961000010371208
          0.7267299890518188 -0.4923279881477356 -0.4790380001068115 0.6000180244445801 -0.4308370053768158 -0.6740610003471375
          0.8010200262069702 -0.45983201265335083 -0.38330501317977905 0.8129090070724487 -0.4271650016307831 -0.39586499333381653
          0.7607730031013489 -0.5105199813842773 -0.40074101090431213 0.08918099850416183 -0.26511600613594055 -0.9600830078125
          0.29551199078559875 -0.34863001108169556 -0.8894550204277039 -0.03755699843168259 -0.14839400351047516 -0.9882150292396545
          -0.11252400279045105 -0.11492399871349335 -0.9869809746742249 0.12023799866437912 -0.3380019962787628 -0.9334329962730408
          0.15026099979877472 -0.35322898626327515 -0.9233909845352173 0.050057001411914825 -0.2016250044107437 -0.9781829714775085
          0.18594099581241608 -0.15444399416446686 -0.970346987247467 -0.29582101106643677 -0.03152799978852272 -0.9547230005264282
          -0.2364560067653656 -0.03379499912261963 -0.9710540175437927 -0.0526529997587204 -0.23729699850082397 -0.9700090289115906
          0.6560609936714172 -0.6066589951515198 0.44894200563430786 0.5374379754066467 -0.6240599751472473 0.5671939849853516
          0.07359900325536728 -0.48099300265312195 0.8736299872398376 0.2019529938697815 -0.5081200003623962 0.8372750282287598
          0.39834898710250854 -0.573868989944458 0.7155359983444214 0.2651459872722626 -0.47271299362182617 0.8403810262680054
          0.2850100100040436 -0.5434049963951111 0.7896080017089844 -0.008031999692320824 -0.37065500020980835 0.9287359714508057