<?xml version="1.0"?>
<VTKFile type="PolyData" version="0.1" byte_order="LittleEndian" header_type="UInt32" compressor="vtkZLibDataCompressor">
  <PolyData>
    <Piece NumberOfPoints="2662" NumberOfVerts="0" NumberOfLines="0" NumberOfStrips="0" NumberOfPolys="5320">
      <PointData Normals="Normals">
        <DataArray type="Float32" Name="Normals" NumberOfComponents="3" format="ascii" RangeMin="0.9999992153572722" RangeMax="1.0000007809130096">
          -0.4882560074329376 -0.37147200107574463 0.7896929979324341 -0.6273599863052368 -0.1632310003042221 0.7614290118217468
          -0.6195330023765564 -0.43306800723075867 0.6546990275382996 -0.4436210095882416 -0.6531109809875488 0.6137149930000305
          -0.5136910080909729 -0.19758599996566772 0.8349140286445618 -0.3029879927635193 -0.44744598865509033 0.8414220213890076
          -0.3454830050468445 -0.578016996383667 0.7392820119857788 -0.7157570123672485 -0.34941399097442627 0.6046500205993652
          -0.6968839764595032 -0.2555440068244934 0.6701120138168335 -0.6158289909362793 -0.001744000008329749 0.7878779768943787
          -0.5771830081939697 -0.019724000245332718 0.8163769841194153 -0.5503280162811279 -0.7469300031661987 0.3731420040130615
          -0.6719719767570496 -0.5332229733467102 0.513933002948761 -0.16272400319576263 -0.8182049989700317 0.5514180064201355
          -0.3863849937915802 -0.8244270086288452 0.41355401277542114 -0.4018459916114807 -0.29627901315689087 0.8664519786834717
          -0.5905749797821045 -0.062474001199007034 0.8045610189437866 -0.22550800442695618 -0.6276789903640747 0.7450940012931824
          -0.010577999986708164 -0.6967179775238037 0.7172669768333435 -0.09917599707841873 -0.4979430139064789 0.861519992351532
          -0.7303159832954407 -0.47423499822616577 0.49167001247406006 -0.7161660194396973 -0.16391000151634216 0.678409993648529
          -0.7445849776268005 -0.4347279965877533 0.5065619945526123 -0.7578830122947693 -0.26021501421928406 0.5982480049133301
          -0.7803720235824585 -0.4197550117969513 0.4634929895401001 -0.7758659720420837 -0.05721300095319748 0.6282979846000671
          -0.6108310222625732 -0.007050999905914068 0.7917299866676331 -0.7349439859390259 0.02487099915742874 0.6776720285415649
          -0.5849660038948059 0.03568299859762192 0.8102719783782959 -0.2787489891052246 -0.9327790141105652 0.22852100431919098
          -0.4456290006637573 -0.8896059989929199 0.10007599741220474 -0.6152920126914978 -0.7088419795036316 0.34490400552749634
          0.08311299979686737 -0.9823030233383179 0.16784599423408508 0.13969199359416962 -0.8939849734306335 0.4257650077342987
          -0.2647329866886139 -0.5099790096282959 0.8184360265731812 -0.5365840196609497 -0.2189899981021881 0.8149359822273254
          -0.6701570153236389 -0.044112998992204666 0.7409080266952515 0.26979801058769226 -0.8430749773979187 0.4652239978313446
          0.1061289981007576 -0.7036510109901428 0.7025750279426575 -0.7041019797325134 -0.6551820039749146 0.27382001280784607
          -0.8690029978752136 -0.2641429901123047 0.4184049963951111 -0.8226550221443176 -0.47201400995254517 0.3169260025024414
          -0.7611290216445923 -0.6242240071296692 0.17614300549030304 -0.8657879829406738 -0.15179699659347534 0.47683200240135193
          -0.7541220188140869 -0.05637900158762932 0.6543099880218506 -0.6249430179595947 -0.005164999980479479 0.7806529998779297
          -0.7360950112342834 -0.13946999609470367 0.6623539924621582 -0.6499320268630981 -0.20049600303173065 0.7330690026283264
          -0.5879790186882019 -0.16882899403572083 0.7910609841346741 -0.13585400581359863 -0.9907249808311462 0.0028689999599009752
          -0.5981349945068359 -0.8012679815292358 -0.014286000281572342 -0.2712070047855377 -0.9494770169258118 -0.15792199969291687
          0.05245799943804741 -0.9975339770317078 -0.04661700129508972 0.21169200539588928 -0.9718890190124512 -0.10304400324821472
          0.2877970039844513 -0.9565770030021667 0.04619000107049942 0.4000900089740753 -0.9015219807624817 0.16488200426101685
          -0.051959000527858734 -0.6662459969520569 0.7439200282096863 -0.20785099267959595 -0.5859689712524414 0.7832229733467102
          -0.5382930040359497 -0.329338014125824 0.7757430076599121 -0.40630200505256653 -0.47803300619125366 0.7787190079689026
          -0.6917269825935364 -0.11351700127124786 0.7131819725036621 0.4286560118198395 -0.8701180219650269 0.2432039976119995
          0.4006980061531067 -0.8192459940910339 0.41021600365638733 0.29386401176452637 -0.7141420245170593 0.6353309750556946
          -0.842972993850708 -0.508338987827301 0.17603300511837006 -0.9162690043449402 -0.29266199469566345 0.27349698543548584
          -0.860696017742157 -0.23379899561405182 0.4522610008716583 -0.6612330079078674 -0.12317799776792526 0.739998996257782
          -0.7179589867591858 -0.03495499864220619 0.6952069997787476 -0.8798009753227234 -0.225382998585701 0.4185119867324829
          -0.8060799837112427 -0.19845399260520935 0.5575399994850159 -0.6135540008544922 -0.2404559999704361 0.7521520256996155
          -0.6166269779205322 -0.23242199420928955 0.7521640062332153 -0.7355809807777405 -0.20852400362491608 0.6445450186729431
          -0.6245669722557068 -0.23027800023555756 0.7462499737739563 -0.005402999930083752 -0.9859979748725891 -0.1666720062494278
          -0.4012629985809326 -0.8957329988479614 -0.19144199788570404 -0.540099024772644 -0.8178589940071106 -0.1984959989786148
          -0.7170159816741943 -0.6966620087623596 0.023435000330209732 -0.2679310142993927 -0.9196609854698181 -0.28711798787117004
          -0.07801300287246704 -0.9540320038795471 -0.2893739938735962 0.48854199051856995 -0.8710960149765015 -0.050175998359918594
          0.2858799993991852 -0.9488459825515747 -0.13402700424194336 0.09173499792814255 -0.9771280288696289 -0.19185100495815277
          0.4958989918231964 -0.8678690195083618 -0.029790999367833138 0.5305200219154358 -0.8472880125045776 -0.02553500048816204
          0.6580340266227722 -0.7472550272941589 0.09274599701166153 0.1434749960899353 -0.5932319760322571 0.7921429872512817
          -0.15756499767303467 -0.5041890144348145 0.8490970134735107 -0.39393600821495056 -0.45474299788475037 0.7987639904022217
          -0.6220530271530151 -0.22937999665737152 0.7486220002174377 -0.7306169867515564 -0.08921000361442566 0.6769350171089172
          0.6002359986305237 -0.6925650238990784 0.40008699893951416 0.5063369870185852 -0.6118379831314087 0.6076809763908386
          -0.8384760022163391 -0.5264449715614319 0.1407639980316162 -0.8812369704246521 -0.33678799867630005 0.33165499567985535
          -0.915386974811554 -0.28268900513648987 0.286624014377594 -0.7833399772644043 -0.1274539977312088 0.6083859801292419
          -0.6472349762916565 -0.22802700102329254 0.7273859977722168 -0.7166129946708679 -0.08828099817037582 0.6918609738349915
          -0.701026976108551 -0.048739999532699585 0.7114670276641846 -0.9620400071144104 -0.18452399969100952 0.20107300579547882
          -0.9347320199012756 -0.129831001162529 0.3307879865169525 -0.6714890003204346 -0.17258299887180328 0.7206370234489441
          -0.8244609832763672 -0.10479400306940079 0.5561310052871704 -0.5713750123977661 -0.25172901153564453 0.7811300158500671
          -0.6161140203475952 -0.1282159984111786 0.7771509885787964 -0.6657770276069641 -0.08194299787282944 0.7416380047798157
          -0.34669798612594604 -0.885208010673523 -0.31017398834228516 -0.6467199921607971 -0.7516859769821167 -0.12931500375270844
          -0.46106600761413574 -0.8182139992713928 -0.3434309959411621 -0.3261969983577728 -0.8846269845962524 -0.3332130014896393
          -0.13680300116539001 -0.9547269940376282 -0.26416099071502686 0.3679479956626892 -0.928646981716156 -0.047217000275850296
          0.6406490206718445 -0.7643250226974487 -0.07332099974155426 0.7218890190124512 -0.6897590160369873 -0.05575599893927574
          0.5305579900741577 -0.8450149893760681 -0.066771000623703 0.02851800061762333 -0.9963470101356506 0.0804930031299591
          0.5913630127906799 -0.8038870096206665 -0.06368499994277954 0.7432199716567993 -0.6682329773902893 -0.03298899903893471
          0.4913330078125 -0.868166983127594 -0.06984200328588486 0.7775790095329285 -0.5986199975013733 0.19241900742053986
          0.8463529944419861 -0.5312119722366333 -0.038729000836610794 0.9036589860916138 -0.42618298530578613 0.042048998177051544
          0.2636660039424896 -0.5143759846687317 0.8160250186920166 -0.033975999802351 -0.38484400510787964 0.9223560094833374
          -0.3202640116214752 -0.3077940046787262 0.8959320187568665 -0.49948200583457947 -0.2815830111503601 0.8192859888076782
          -0.6420350074768066 -0.12520499527454376 0.7563830018043518 0.7579630017280579 -0.538644015789032 0.36790698766708374
          0.719864010810852 -0.433012992143631 0.5424910187721252 0.4532580077648163 -0.4922719895839691 0.7431190013885498
          0.6030719876289368 -0.4513770043849945 0.657696008682251 -0.855804979801178 -0.4946799874305725 0.151295006275177
          -0.7703120112419128 -0.6365690231323242 -0.037404999136924744 -0.9084349870681763 -0.3486019968986511 0.23070000112056732
          -0.963051974773407 -0.2374510020017624 0.12707099318504333 -0.7597799897193909 -0.11577600240707397 0.6397889852523804
          -0.659259021282196 -0.11567600071430206 0.7429640293121338 -0.589510977268219 -0.20181900262832642 0.7821419835090637
          -0.585515022277832 -0.2861480116844177 0.7584789991378784 -0.5511159896850586 -0.2639169991016388 0.7915930151939392
          -0.7688509821891785 -0.09506099671125412 0.6323220133781433 -0.9842060208320618 -0.166594997048378 -0.05986899882555008
          -0.986615002155304 -0.14399300515651703 -0.07653500139713287 -0.8199710249900818 -0.03341599926352501 0.5714290142059326
          -0.9843819737434387 -0.07581199705600739 0.15888899564743042 -0.939287006855011 -0.027201000601053238 0.34205299615859985
          -0.7319070100784302 -0.061149001121520996 0.6786550283432007 -0.8182759881019592 0.018850000575184822 0.5745159983634949
          -0.5497580170631409 -0.12607699632644653 0.8257550001144409 -0.5392869710922241 0.06924399733543396 0.8392710089683533
          -0.5770909786224365 0.09520299732685089 0.8111119866371155 -0.6810799837112427 0.01984100043773651 0.731939971446991
          -0.7118149995803833 -0.6709060072898865 -0.20785599946975708 -0.38095399737358093 -0.8367369771003723 -0.39337700605392456
          -0.4840480089187622 -0.7783769965171814 -0.39978399872779846 -0.28674599528312683 -0.9362050294876099 -0.20321600139141083
          -0.5154100060462952 -0.7932810187339783 -0.32412800192832947 -0.5362139940261841 -0.7735249996185303 -0.33783701062202454
          -0.25854700803756714 -0.9651439785957336 -0.04063199833035469 0.5518350005149841 -0.8250529766082764 0.12151200324296951
          0.46797099709510803 -0.8836600184440613 -0.012137999758124352 -0.47043800354003906 -0.8820919990539551 0.02453799918293953
          -0.15626999735832214 -0.9676460027694702 0.1980919986963272 0.07148800045251846 -0.9386540055274963 0.33736899495124817
          0.31722700595855713 -0.8692700266838074 0.37912601232528687 0.5323590040206909 -0.8456000089645386 0.03943900018930435
          0.7139149904251099 -0.6993770003318787 -0.034598998725414276 0.8016340136528015 -0.5874530076980591 0.11082399636507034
          0.8718559741973877 -0.4841639995574951 0.07384099811315536 0.8394250273704529 -0.5140429735183716 0.1764259934425354
          0.9425939917564392 -0.27159300446510315 0.19430400431156158 0.9747059941291809 -0.22290900349617004 0.01611500047147274
          0.97188800573349 -0.23534899950027466 0.00673400005325675 0.8572390079498291 -0.4435040056705475 0.26162099838256836
          0.9197450280189514 -0.3001120090484619 0.25298601388931274 0.9722129702568054 -0.23257000744342804 0.02669999934732914
          0.9584919810295105 -0.25551798939704895 0.1265069991350174 0.49452000856399536 -0.3431189954280853 0.7985730171203613
          0.18458999693393707 -0.3242169916629791 0.9277979731559753 -0.09839099645614624 -0.20150400698184967 0.9745330214500427
          -0.3852419853210449 -0.18673700094223022 0.9037240147590637 -0.667506992816925 -0.06337100267410278 0.7419019937515259
          0.8284850120544434 -0.3807539939880371 0.41065600514411926 0.7281129956245422 -0.30327001214027405 0.6147189736366272
          -0.8955960273742676 -0.4448220133781433 0.006453999783843756 -0.952646017074585 -0.28687798976898193 0.100832998752594
          -0.9782329797744751 -0.2061080038547516 -0.024078000336885452 -0.7357000112533569 -0.0694350004196167 0.6737390160560608
          -0.4612410068511963 -0.09734299778938293 0.8819190263748169 -0.57082599401474 -0.04396999999880791 0.8198930025100708
          -0.3779680132865906 -0.05130600184202194 0.9243959784507751 -0.43855899572372437 -0.004211000166833401 0.8986930251121521
          -0.9361780285835266 -0.1591230034828186 -0.31345000863075256 -0.8825240135192871 -0.19550000131130219 -0.42770498991012573
          -0.9083009958267212 -0.14245299994945526 -0.39331498742103577 -0.8968049883842468 -0.20293399691581726 -0.3931390047073364
          -0.9586510062217712 -0.20969299972057343 -0.19239600002765656 -0.9857119917869568 -0.125792995095253 0.11201900243759155
          -0.9718760251998901 -0.2176010012626648 -0.09004300087690353 -0.7806130051612854 0.03862399980425835 0.6238200068473816
          -0.7443529963493347 0.0034719998948276043 0.6677780151367188 -0.8993080258369446 -0.06355199962854385 0.43267199397087097
          -0.9571290016174316 -0.1534709930419922 0.24566200375556946 -0.9167810082435608 0.03815700113773346 0.3975619971752167
          -0.8596789836883545 0.03737799823284149 0.5094659924507141 -0.7115330100059509 0.06047099828720093 0.7000460028648376
          -0.39330101013183594 0.17138700187206268 0.903294026851654 -0.3412410020828247 0.31863999366760254 0.8843209743499756
          -0.6129699945449829 0.06870400160551071 0.7871130108833313 -0.5329620242118835 0.08883199840784073 0.841463029384613
          -0.434130996465683 0.2541239857673645 0.8642629981040955 -0.3755210041999817 0.2168090045452118 0.9010980129241943
          -0.6065000295639038 -0.6191290020942688 -0.4988360106945038 -0.7794299721717834 -0.5729770064353943 -0.25335100293159485
          -0.4971520006656647 -0.7010669708251953 -0.5112190246582031 -0.5848209857940674 -0.7093899846076965 -0.39338400959968567
          -0.4541819989681244 -0.8635640144348145 -0.2190369963645935 0.6529819965362549 -0.7532699704170227 0.07873599976301193
          0.8514469861984253 -0.4924989938735962 0.18022799491882324 0.9705290198326111 -0.23595799505710602 0.04896799847483635
          -0.3881489932537079 -0.9173030257225037 0.08886200189590454 -0.6240389943122864 -0.7810779809951782 -0.02218499965965748
          -0.5354909896850586 -0.8440489768981934 -0.028819000348448753 -0.6616939902305603 -0.7432140111923218 -0.09896700084209442
          -0.6822770237922668 -0.7310889959335327 -0.00266700005158782 0.013252000324428082 -0.9816190004348755 0.19039000570774078
          0.08422800153493881 -0.9327859878540039 0.3504509925842285 -0.017774000763893127 -0.9966760277748108 0.07950200140476227
          -0.34660500288009644 -0.9366199970245361 0.05107299983501434 0.28726398944854736 -0.8296170234680176 0.47876399755477905
          0.4395650029182434 -0.7831360101699829 0.43986499309539795 0.3947660028934479 -0.854013979434967 0.3388519883155823
          0.6668030023574829 -0.7202540040016174 0.19133299589157104 0.9002159833908081 -0.4328629970550537 0.04733800143003464
          0.559033989906311 -0.8000199794769287 0.21782800555229187 0.7546929717063904 -0.5397670269012451 0.3729479908943176
          0.8861510157585144 -0.40438199043273926 0.2262990027666092 0.7901999950408936 -0.3333500027656555 0.5142580270767212
          0.8531209826469421 -0.11845400184392929 0.5080879926681519 0.9931179881095886 -0.11558099836111069 0.018928000703454018
          0.9255430102348328 -0.09756200015544891 0.36585700511932373 0.9840160012245178 -0.06642500311136246 0.16522899270057678
          0.9886620044708252 -0.14899399876594543 -0.018641000613570213 0.9942470192909241 -0.1019430011510849 0.032885998487472534
          0.8689799904823303 -0.29520899057388306 0.39714598655700684 0.912513017654419 -0.21530599892139435 0.34779900312423706
          0.941756010055542 -0.17503300309181213 0.28715598583221436 0.9713199734687805 -0.11865700036287308 0.20605599880218506
          0.4968689978122711 -0.13788799941539764 0.8568009734153748 0.3021700084209442 -0.23187899589538574 0.9246219992637634
          0.010305999778211117 -0.13883399963378906 0.990261971950531 -0.43599700927734375 -0.07812000066041946 0.8965510129928589
          0.8632829785346985 -0.21919099986553192 0.4546400010585785 0.7150499820709229 -0.14621299505233765 0.6836119890213013
          -0.9558669924736023 -0.2569260001182556 -0.14250299334526062 -0.8845720291137695 -0.4234730005264282 -0.19545699656009674
          -0.25654900074005127 0.11894600093364716 0.9591839909553528 -0.34501299262046814 -0.06320399791002274 0.9364669919013977
          -0.49512800574302673 -0.010830000042915344 0.8687520027160645 -0.36713701486587524 0.0020910000894218683 0.9301649928092957
          -0.16957099735736847 0.13177500665187836 0.9766680002212524 -0.20503200590610504 0.24895499646663666 0.9465640187263489
          -0.8896740078926086 -0.22331100702285767 -0.39826199412345886 -0.8294450044631958 -0.24253800511360168 -0.5031870007514954
          -0.8631759881973267 -0.21941600739955902 -0.45473501086235046 -0.8667780160903931 -0.1898760050535202 -0.4611330032348633
          -0.8583390116691589 -0.23756299912929535 -0.4547719955444336 -0.8889439702033997 -0.23148199915885925 -0.3952150046825409
          -0.846455991268158 -0.20172500610351562 -0.49276700615882874 -0.9182220101356506 -0.2167859971523285 -0.3314700126647949
          -0.8854889869689941 -0.1940930038690567 -0.42218199372291565 -0.942916989326477 -0.23166599869728088 -0.2392439991235733
          -0.9698460102081299 -0.22982700169086456 0.08110500127077103 -0.9686440229415894 -0.24778099358081818 0.01823900081217289
          -0.9550020098686218 -0.2515060007572174 -0.1572130024433136 -0.9232010245323181 -0.2643069922924042 -0.27900001406669617
          -0.7836179733276367 0.03969600051641464 0.6199740171432495 -0.8914300203323364 -0.13546200096607208 0.4324379861354828
          -0.8356279730796814 -0.07834800332784653 0.5436789989471436 -0.9647430181503296 -0.21938000619411469 0.14540599286556244
          -0.734495997428894 -0.027401000261306763 0.678059995174408 -0.6550660133361816 0.05632900074124336 0.7534689903259277
          -0.19830599427223206 0.4152829945087433 0.887814998626709 -0.2448969930410385 0.42468899488449097 0.8715869784355164
          -0.15086400508880615 0.34306201338768005 0.9271180033683777 0.03030800074338913 0.4498800039291382 0.8925750255584717
          0.03493800014257431 0.5852329730987549 0.8101119995117188 -0.3453789949417114 0.1610340029001236 0.9245439767837524
          -0.3400610089302063 0.09651599824428558 0.9354379773139954 -0.5482400059700012 -0.006969999987632036 0.836292028427124
          -0.5423709750175476 -0.013555999845266342 0.8400300145149231 -0.11808300018310547 0.21354100108146667 0.9697710275650024
          -0.5638009905815125 -0.5894150137901306 -0.578548014163971 -0.6024510264396667 -0.592960000038147 -0.5342770218849182
          -0.6904850006103516 -0.4709709882736206 -0.5490139722824097 -0.7441329956054688 -0.5252540111541748 -0.41276299953460693
          -0.7701230049133301 -0.6334999799728394 -0.0747620016336441 -0.7113680243492126 -0.6375899910926819 -0.2956950068473816
          -0.6821359992027283 -0.6845639944076538 -0.2570280134677887 -0.38704898953437805 -0.9008240103721619 -0.19674800336360931
          -0.5656470060348511 -0.7786849737167358 -0.2714659869670868 -0.779600977897644 -0.6155840158462524 -0.11523299664258957
          0.26255300641059875 -0.8849380016326904 0.3846440017223358 0.03922399878501892 -0.9892600178718567 0.1408039927482605
          0.7981029748916626 -0.6023309826850891 -0.015149000100791454 -0.1005610004067421 -0.9938570261001587 -0.04621800035238266
          -0.28056401014328003 -0.9593020081520081 -0.03198099881410599 0.7970029711723328 -0.6037089824676514 -0.017943000420928
          0.7041320204734802 -0.5986400246620178 0.3818739950656891 0.4834190011024475 -0.6985089778900146 0.5276280045509338
          0.6510429978370667 -0.5571309924125671 0.5155069828033447 0.6367089748382568 -0.49335598945617676 0.5926229953765869
          0.7808089852333069 -0.08583000302314758 0.6188470125198364 0.8429319858551025 -0.2267879992723465 0.4878860116004944
          0.7579190135002136 -0.3903689980506897 0.5226579904556274 0.8394489884376526 -0.2938019931316376 0.4571709930896759
          0.6828359961509705 -0.5257980227470398 0.5072190165519714 0.6112329959869385 -0.5390250086784363 0.5795230269432068
          0.8875809907913208 0.07439400255680084 0.45460501313209534 0.9991869926452637 0.02159699983894825 0.03405100107192993
          0.9582769870758057 0.1881379932165146 0.21519699692726135 0.9670789837837219 0.07646799832582474 0.2427150011062622
          0.8909469842910767 -0.12380500137805939 0.43690401315689087 0.9485329985618591 -0.015554999932646751 0.31629499793052673
          0.9275599718093872 -0.013825999572873116 0.37341800332069397 0.6524969935417175 0.04996500164270401 0.7561420202255249
          0.2503570020198822 -0.09008199721574783 0.963953971862793 0.4460870027542114 0.09695299714803696 0.889723002910614
          0.23878900706768036 0.0496239997446537 0.969802975654602 -0.2666040062904358 -0.017256999388337135 0.9636520147323608
          0.03566800057888031 0.029146000742912292 0.9989389777183533 0.7937560081481934 0.04666699841618538 0.6064440011978149
          -0.8427029848098755 -0.37229299545288086 -0.3889090120792389 -0.861253023147583 -0.2869449853897095 -0.41940999031066895
          -0.03484100103378296 0.3014400005340576 0.9528480172157288 0.026357000693678856 0.3538750112056732 0.9349210262298584
          -0.1818629950284958 0.0709799975156784 0.9807590246200562 0.09079600125551224 0.2975560128688812 0.9503769874572754
          -0.03777499869465828 0.5400320291519165 0.8407959938049316 -0.8075100183486938 -0.30493900179862976 -0.5049149990081787
          -0.7898420095443726 -0.42605799436569214 -0.44116300344467163 -0.9241849780082703 -0.20506100356578827 -0.3222300112247467
          -0.8797289729118347 -0.2283879965543747 -0.41703200340270996 -0.8465610146522522 -0.25648200511932373 -0.46642300486564636
          -0.8558130264282227 -0.2453169971704483 -0.4554150104522705 -0.8878499865531921 -0.2590779960155487 -0.380264014005661
          -0.8971920013427734 -0.2610990107059479 -0.3561919927597046 -0.8977439999580383 -0.2578530013561249 -0.35716599225997925
          -0.9257649779319763 -0.26009300351142883 -0.27442899346351624 -0.9738559722900391 -0.22714899480342865 0.002696000039577484
          -0.8898289799690247 -0.25069400668144226 -0.38125699758529663 -0.7952190041542053 -0.13609999418258667 0.5908499956130981
          -0.9324920177459717 -0.15861399471759796 0.32450199127197266 -0.8695769906044006 -0.13927899301052094 0.4737490117549896
          -0.6069409847259521 -0.09452199935913086 0.789106011390686 0.017703000456094742 0.5807399749755859 0.8138960003852844
          0.08268699795007706 0.6018440127372742 0.7943210005760193 0.07555100321769714 0.31179699301719666 0.9471399784088135
          0.2947460114955902 0.5215590000152588 0.8006880283355713 0.2558929920196533 0.3498600125312805 0.9011750221252441
          0.41067299246788025 0.6832900047302246 0.603708028793335 0.20459799468517303 0.7106810212135315 0.6731070280075073
          -0.06317999958992004 0.15106900036334991 0.9865019917488098 -0.22918100655078888 0.10437300056219101 0.9677720069885254
          -0.4275459945201874 -0.010165000334382057 0.9039369821548462 0.09384600073099136 0.16952499747276306 0.9810469746589661
          -0.482356995344162 -0.04430900141596794 0.8748530149459839 -0.537913978099823 -0.07121799886226654 0.8399860262870789
          -0.4648459851741791 -0.06644800305366516 0.8828949928283691 0.16244399547576904 0.19734600186347961 0.9667819738388062
          -0.6695020198822021 -0.5993480086326599 -0.4388029873371124 -0.8473299741744995 -0.5291510224342346 0.045062001794576645
          -0.8286970257759094 -0.5593770146369934 0.01896899938583374 -0.796002984046936 -0.5877419710159302 -0.14470499753952026
          -0.7702230215072632 -0.5114960074424744 -0.3809579908847809 -0.6579149961471558 -0.472804993391037 -0.5861769914627075
          -0.6072450280189514 -0.5727289915084839 -0.5506680011749268 -0.595350980758667 -0.6519240140914917 -0.46963098645210266
          -0.3617999851703644 -0.8065900206565857 -0.4674539864063263 -0.22525499761104584 -0.8594380021095276 -0.4589399993419647
          -0.15623299777507782 -0.9500330090522766 -0.270236998796463 -0.05653800070285797 -0.9883480072021484 -0.1413230001926422
          -0.5196089744567871 -0.6898099780082703 -0.5041519999504089 -0.8364160060882568 -0.47317299246788025 -0.2766149938106537
          -0.8766019940376282 -0.47151100635528564 -0.09615399688482285 0.141526997089386 -0.987417995929718 0.0705379992723465
          0.37551501393318176 -0.8800740242004395 0.2906169891357422 0.41081398725509644 -0.7668269872665405 0.49316200613975525
          0.013509999960660934 -0.9889929890632629 -0.1473419964313507 0.7900279760360718 -0.6117569804191589 -0.040130000561475754
          0.1316629946231842 -0.9537039995193481 -0.27039599418640137 0.5128260254859924 -0.6507930159568787 0.5598909854888916
          0.849524974822998 -0.1361120045185089 0.5096880197525024 0.8685709834098816 0.040525998920202255 0.4939050078392029
          0.7861989736557007 0.08719100058078766 0.6117910146713257 0.9501169919967651 -0.17303699254989624 0.2594900131225586
          0.9363390207290649 -0.1400810033082962 0.32194098830223083 0.8409209847450256 -0.391975998878479 0.37310299277305603
          0.7701929807662964 -0.5161510109901428 0.3746879994869232 0.9336599707603455 -0.224481999874115 0.27908098697662354
          0.5299729704856873 -0.7231199741363525 0.4429740011692047 0.6180610060691833 -0.6639819741249084 0.4208660125732422
          0.6768680214881897 -0.6832870244979858 0.2738040089607239 0.7733070254325867 0.21112999320030212 0.5978459715843201
          0.8719819784164429 0.1919739991426468 0.45032599568367004 0.9575409889221191 0.2871890068054199 0.025256000459194183
          0.971900999546051 0.23056699335575104 0.047412000596523285 0.9038100242614746 0.4160340130329132 0.10021299868822098
          0.8237370252609253 0.32339298725128174 0.4656980037689209 0.8798580169677734 0.31334298849105835 0.35730400681495667
          0.85555100440979 0.21285100281238556 0.4719400107860565 0.9155070185661316 0.28149399161338806 0.2874169945716858
          0.8787810206413269 0.08484400063753128 0.46962299942970276 0.6189429759979248 0.13983799517154694 0.7728869915008545
          0.7113329768180847 0.18613700568675995 0.6777600049972534 0.5218449831008911 0.19228200614452362 0.8310869932174683
          0.30148300528526306 0.19404900074005127 0.9335160255432129 0.11714299768209457 0.1690099984407425 0.9786279797554016
          0.23455099761486053 0.4234539866447449 0.8750270009040833 0.1575399935245514 0.5767109990119934 0.801613986492157
          0.2330169975757599 0.3294540047645569 0.9149659872055054 0.34684300422668457 0.43474000692367554 0.8310840129852295
          0.372063010931015 0.5749350190162659 0.7287099957466125 0.30452200770378113 0.7411159873008728 0.5983420014381409
          -0.8039950132369995 -0.5444110035896301 -0.23918500542640686 -0.9052550196647644 -0.3615350127220154 -0.22317199409008026
          -0.9340010285377502 -0.18591299653053284 -0.30508700013160706 -0.9208400249481201 -0.15849700570106506 -0.3562760055065155
          -0.9259679913520813 -0.1639699935913086 -0.3401409983634949 -0.8349270224571228 -0.1643809974193573 -0.5252379775047302
          -0.8490899801254272 -0.25936299562454224 -0.4601919949054718 -0.8426709771156311 -0.19722600281238556 -0.5010070204734802
          -0.7414010167121887 -0.1642419993877411 -0.6506519913673401 -0.7926520109176636 -0.23950499296188354 -0.5606600046157837
          -0.9422900080680847 -0.2297929972410202 -0.2434840053319931 -0.9005699753761292 -0.20500899851322174 0.3833329975605011
          -0.9194920063018799 -0.20664000511169434 0.3344169855117798 -0.9442319869995117 -0.2311979979276657 -0.23446400463581085
          -0.9812210202217102 -0.14887499809265137 0.12264499813318253 -0.968455970287323 -0.2087779939174652 -0.13603299856185913
          -0.9640849828720093 -0.21366800367832184 -0.1577560007572174 -0.8407989740371704 -0.21505999565124512 -0.49679699540138245
          -0.8416560292243958 -0.17003700137138367 0.5125449895858765 -0.6792020201683044 -0.14899100363254547 0.7186700105667114
          -0.47126901149749756 -0.10498599708080292 0.8757190108299255 0.2743769884109497 0.7047880291938782 0.6542109847068787
          0.2528519928455353 0.7640330195426941 0.5935649871826172 0.4912639856338501 0.3521760106086731 0.796638011932373
          0.6019880175590515 0.4939039945602417 0.6274309754371643 0.41946500539779663 0.2389799952507019 0.8757500052452087
          0.4085240066051483 0.7377449870109558 0.5374389886856079 0.5252820253372192 0.7211959958076477 0.45161300897598267
          0.6213669776916504 0.6181439757347107 0.48145800828933716 0.4363270103931427 0.7806670069694519 0.44741299748420715