<?xml version="1.0"?>
<VTKFile type="PolyData" version="0.1" byte_order="LittleEndian" header_type="UInt32" compressor="vtkZLibDataCompressor">
  <PolyData>
    <Piece NumberOfPoints="2627" NumberOfVerts="0" NumberOfLines="0" NumberOfStrips="0" NumberOfPolys="5250">
      <PointData Normals="Normals">
        <DataArray type="Float32" Name="Normals" NumberOfComponents="3" format="ascii" RangeMin="0.9999991559319058" RangeMax="1.0000008061671901">
          -0.9393619894981384 0.0609080009162426 -0.33747398853302 -0.9500439763069153 0.011830000206828117 -0.3118929862976074
          -0.9383860230445862 0.0689850002527237 -0.3386330008506775 -0.9462710022926331 -0.05071699991822243 -0.3193719983100891
          -0.9172539710998535 -0.12433700263500214 -0.3783999979496002 -0.90761399269104 0.10842599719762802 -0.40556201338768005
          -0.9758239984512329 -0.0680060014128685 -0.20770999789237976 -0.9524270296096802 0.05841200053691864 -0.29911598563194275
          -0.9479429721832275 -0.09846100211143494 -0.3028370141983032 -0.9549639821052551 0.014859000220894814 -0.2963489890098572
          -0.9493669867515564 0.04941200092434883 -0.31025800108909607 -0.9412379860877991 -0.0051910001784563065 -0.33770298957824707
          -0.9173420071601868 -0.06599900126457214 -0.39259201288223267 -0.8659830093383789 -0.1149900034070015 -0.4866729974746704
          -0.9362940192222595 -0.06893400102853775 -0.3443849980831146 -0.9293810129165649 -0.027310999110341072 -0.3681110143661499
          -0.8768500089645386 -0.12812599539756775 -0.4633769989013672 -0.9485599994659424 -0.11863499879837036 -0.29353100061416626
          -0.9793670177459717 -0.11902900040149689 -0.1633179932832718 -0.9633030295372009 -0.11670199781656265 -0.24172000586986542
          -0.956974983215332 0.09881400316953659 -0.27282699942588806 -0.9582390189170837 -0.08575599640607834 -0.2728070020675659
          -0.9947680234909058 -0.005878000054508448 -0.10199099779129028 -0.9244199991226196 0.18318699300289154 -0.3345000147819519
          -0.9592940211296082 -0.04181699827313423 -0.27929800748825073 -0.916638970375061 0.2685979902744293 -0.2960219979286194
          -0.9580159783363342 -0.000155999994603917 -0.28671398758888245 -0.9603719711303711 0.04781699925661087 -0.27458998560905457
          -0.9111999869346619 0.17305399477481842 -0.37385499477386475 -0.8741750121116638 0.2630620002746582 -0.40818700194358826
          -0.8988909721374512 -0.15595099329948425 -0.4094809889793396 -0.914650022983551 -0.032274000346660614 -0.40295499563217163
          -0.8577349781990051 -0.09441199898719788 -0.5053480267524719 -0.9043449759483337 -0.22647400200366974 -0.3617579936981201
          -0.9112290143966675 -0.20000700652599335 -0.3600809872150421 -0.8782050013542175 -0.22372399270534515 -0.42273399233818054
          -0.9295390248298645 -0.17676199972629547 -0.32359400391578674 -0.8934590220451355 -0.17536599934101105 -0.4134939908981323
          -0.891385018825531 0.15345199406147003 -0.4264799952507019 -0.8839070200920105 -0.03348999843001366 -0.46646299958229065
          -0.9641479849815369 -0.12748700380325317 -0.23273399472236633 -0.9132009744644165 -0.05904199928045273 -0.40321001410484314
          -0.9060609936714172 -0.17093400657176971 -0.38708600401878357 -0.9543290138244629 -0.223798006772995 -0.1979140043258667
          -0.922855019569397 -0.014996999874711037 -0.3848550021648407 -0.9070010185241699 0.19103099405765533 -0.3753089904785156
          -0.9172400236129761 -0.23667700588703156 -0.3203980028629303 -0.9630979895591736 0.07583700120449066 -0.25824499130249023
          -0.8893060088157654 0.34290701150894165 -0.30257099866867065 -0.8047860264778137 0.38469401001930237 -0.4520280063152313
          -0.9573050141334534 -0.042539000511169434 -0.2859340012073517 -0.8820469975471497 0.3310520052909851 -0.33525699377059937
          -0.9659259915351868 0.0295570008456707 -0.25712698698043823 -0.9860439896583557 0.06881500035524368 -0.1515980064868927
          -0.9607200026512146 0.059856999665498734 -0.27098798751831055 -0.8768939971923828 0.20140400528907776 -0.43645501136779785
          -0.9106799960136414 0.057711001485586166 -0.409061998128891 -0.9561570286750793 0.10165999829769135 -0.27464398741722107
          -0.9354739785194397 -0.01233999989926815 -0.3531799912452698 -0.9335389733314514 0.020906999707221985 -0.35786598920822144
          -0.7882279753684998 -0.04606299847364426 -0.6136569976806641 -0.916363000869751 -0.014573999680578709 -0.400083988904953
          -0.8354349732398987 -0.2579619884490967 -0.48528701066970825 -0.8247969746589661 -0.16152499616146088 -0.5418670177459717
          -0.846019983291626 -0.15206100046634674 -0.5110070109367371 -0.8785110116004944 -0.1342190057039261 -0.4584810137748718
          -0.9065089821815491 -0.31169000267982483 -0.28476598858833313 -0.9174630045890808 -0.13434700667858124 -0.3744480013847351
          -0.8835470080375671 -0.1682949960231781 -0.43705999851226807 -0.8746179938316345 0.1287509948015213 -0.46740299463272095
          -0.8105310201644897 0.33542001247406006 -0.48013898730278015 -0.7956849932670593 0.37573298811912537 -0.47508901357650757
          -0.7241610288619995 0.39917001128196716 -0.5623639822006226 -0.857138991355896 -0.016713999211788177 -0.514814019203186
          -0.8354679942131042 0.17031900584697723 -0.5224800109863281 -0.9694929718971252 -0.13359899818897247 -0.20551100373268127
          -0.9526119828224182 -0.2801949977874756 -0.11840900033712387 -0.9243850111961365 -0.11694400012493134 -0.36309298872947693
          -0.90767902135849 -0.06057199835777283 -0.41527101397514343 -0.8021320104598999 0.1085280030965805 -0.5872020125389099
          -0.8915690183639526 -0.36198899149894714 -0.2721549868583679 -0.9096819758415222 -0.4045419991016388 -0.09393999725580215
          -0.9094579815864563 -0.26698100566864014 -0.3187600076198578 -0.844618022441864 0.07688099890947342 -0.52982097864151
          -0.9475330114364624 -0.12111900001764297 -0.29582399129867554 -0.8764680027961731 0.2056789994239807 -0.4353170096874237
          -0.7288159728050232 0.39744600653648376 -0.5575519800186157 -0.737991988658905 0.4813700020313263 -0.47291699051856995
          -0.9743589758872986 0.055038001388311386 -0.21816299855709076 -0.9890879988670349 -0.04138600081205368 -0.14139199256896973
          -0.9478949904441833 0.3141629993915558 0.052887000143527985 -0.998714029788971 -0.036083001643419266 0.035617001354694366
          -0.9440010190010071 0.3059830069541931 -0.12344100326299667 -0.9637809991836548 -0.026020999997854233 -0.2654229998588562
          -0.9329320192337036 0.24139000475406647 -0.26715099811553955 -0.8627809882164001 0.2649550139904022 -0.4305900037288666
          -0.8394489884376526 0.11019299924373627 -0.5321490168571472 -0.890030026435852 0.11196999996900558 -0.44193699955940247
          -0.8837699890136719 0.08068300038576126 -0.4609130024909973 -0.8966599702835083 0.16835899651050568 -0.4094569981098175
          -0.915099024772644 0.07192099839448929 -0.39676299691200256 -0.9625849723815918 0.03343600034713745 -0.2689090073108673
          -0.9861800074577332 0.06121300160884857 -0.15395699441432953 -0.9701589941978455 0.12099900096654892 -0.21011899411678314
          -0.9533209800720215 0.15065599977970123 -0.26169100403785706 -0.9535229802131653 0.06159999966621399 -0.2949570119380951
          -0.7828800082206726 -0.31407400965690613 -0.5370820164680481 -0.8521819710731506 -0.3092080056667328 -0.4221090078353882
          -0.7593349814414978 -0.31886300444602966 -0.567218005657196 -0.8526219725608826 -0.16147899627685547 -0.4969500005245209
          -0.8125550150871277 -0.12147899717092514 -0.5700860023498535 -0.7625129818916321 -0.3501110076904297 -0.5440549850463867
          -0.7754589915275574 0.22670499980449677 -0.5892950296401978 -0.7748399972915649 0.3634839951992035 -0.5172070264816284
          -0.5303270220756531 0.5216400027275085 -0.6683149933815002 -0.6616129875183105 0.39663800597190857 -0.6363540291786194
          -0.7227920293807983 0.3646570146083832 -0.5870239734649658 -0.7223520278930664 0.27021199464797974 -0.6365479826927185
          -0.7353389859199524 0.0978119969367981 -0.6706039905548096 -0.951183021068573 -0.26617398858070374 -0.15621399879455566
          -0.9427379965782166 -0.31788501143455505 -0.10096699744462967 -0.9377509951591492 -0.34663501381874084 -0.02162100002169609
          -0.899478018283844 -0.3184930086135864 -0.2991670072078705 -0.9098380208015442 -0.13241800665855408 -0.39326900243759155
          -0.859840989112854 -0.4266369938850403 -0.28045400977134705 -0.8465290069580078 -0.5057240128517151 -0.1662299931049347
          -0.9247030019760132 -0.3719399869441986 0.08115100115537643 -0.840848982334137 -0.541155993938446 -0.011102999560534954
          -0.9061179757118225 -0.40554600954055786 0.12034100294113159 -0.8989620208740234 -0.366008996963501 -0.2406339943408966
          -0.9582949876785278 -0.1311119943857193 -0.2539309859275818 -0.9385420083999634 -0.3011919856071472 -0.16858899593353271
          -0.9471690058708191 -0.20247000455856323 -0.24875099956989288 -0.8356469869613647 0.15702399611473083 -0.5263429880142212
          -0.831475019454956 0.13305799663066864 -0.5393930077552795 -0.8769279718399048 0.18095800280570984 -0.44525399804115295
          -0.8111469745635986 0.27020201086997986 -0.5186820030212402 -0.8053640127182007 0.3112019896507263 -0.5045210123062134
          -0.9691159725189209 0.21411900222301483 0.12234199792146683 -0.8444030284881592 0.5353220105171204 0.020357999950647354
          -0.9676679968833923 -0.2273710072040558 -0.10918299853801727 -0.9568570256233215 -0.2758159935474396 0.0913809984922409
          -0.9217100143432617 0.3103190064430237 -0.23270699381828308 -0.8215000033378601 0.5374810099601746 -0.19039900600910187
          -0.9473540186882019 -0.22211100161075592 -0.2306240051984787 -0.9044849872589111 0.1251399964094162 -0.4077349901199341
          -0.9087830185890198 0.2931169867515564 -0.29697901010513306 -0.8285530209541321 0.272473007440567 -0.48914000391960144
          -0.8302670121192932 0.2857989966869354 -0.4785130023956299 -0.6430580019950867 0.41222700476646423 -0.6454030275344849
          -0.7772030234336853 0.22886499762535095 -0.5861539840698242 -0.7528759837150574 0.3736790120601654 -0.541795015335083
          -0.7814679741859436 0.3688969910144806 -0.5032119750976562 -0.7408139705657959 0.45133399963378906 -0.4974859952926636
          -0.7148900032043457 0.49270400404930115 -0.49616101384162903 -0.8821859955787659 0.24486100673675537 -0.4022330045700073
          -0.97325199842453 0.06673499941825867 -0.21983499825000763 -0.982243001461029 0.09036900103092194 -0.1644120067358017
          -0.9534760117530823 0.0889659970998764 -0.28804200887680054 -0.9421030282974243 0.19418799877166748 -0.273373007774353
          -0.9268609881401062 0.2922559976577759 -0.23561500012874603 -0.9418879747390747 0.20473000407218933 -0.2663309872150421
          -0.9831699728965759 -0.0771849974989891 -0.16559000313282013 -0.9803789854049683 0.0821940004825592 -0.17916999757289886
          -0.8956000208854675 -0.29018399119377136 -0.3371860086917877 -0.7985150218009949 -0.22009100019931793 -0.5602980256080627
          -0.8111220002174377 -0.27583199739456177 -0.5157489776611328 -0.7841780185699463 -0.2115190029144287 -0.5833740234375
          -0.6938580274581909 -0.3680030107498169 -0.6189780235290527 -0.8573660254478455 -0.3117470145225525 -0.4095570147037506
          -0.7895780205726624 -0.27467599511146545 -0.5487440228462219 -0.6549299955368042 -0.376134991645813 -0.655430018901825
          -0.8153949975967407 -0.2898930013179779 -0.5010929703712463 -0.7640789747238159 0.054058998823165894 -0.6428539752960205
          -0.7329760193824768 0.07473599910736084 -0.6761369705200195 -0.8062390089035034 -0.2710219919681549 -0.5258569717407227
          -0.8360199928283691 -0.4020020067691803 -0.37345099449157715 -0.7902209758758545 -0.37932100892066956 -0.48131799697875977
          -0.8295680284500122 0.2580290138721466 -0.4952149987220764 -0.7039729952812195 0.3506639897823334 -0.6176220178604126
          -0.8800809979438782 0.1460690051317215 -0.4517970085144043 -0.782817006111145 0.1935119926929474 -0.5913969874382019
          -0.6032789945602417 0.4241029918193817 -0.6754199862480164 0.958450973033905 0.16056300699710846 -0.23577800393104553
          0.34835800528526306 0.42455899715423584 -0.8357009887695312 -0.5645859837532043 0.45595601201057434 -0.6880019903182983
          -0.5331259965896606 0.41485700011253357 -0.737339973449707 -0.7788680195808411 0.1822499930858612 -0.6001250147819519
          -0.7431719899177551 0.2598249912261963 -0.6165919899940491 -0.5831059813499451 0.28564199805259705 -0.7605239748954773
          -0.9494919776916504 -0.3097040057182312 -0.050485000014305115 -0.9363369941711426 -0.3354550004005432 -0.10364600270986557
          -0.8532119989395142 -0.37250199913978577 -0.36506399512290955 -0.9258019924163818 -0.341746985912323 -0.16155099868774414
          -0.9155300259590149 -0.36523398756980896 0.16854700446128845 -0.9351810216903687 -0.3514750003814697 0.04361499845981598
          -0.9356920123100281 -0.32848501205444336 0.1287589967250824 -0.8329899907112122 -0.5145919919013977 -0.2032810002565384
          -0.7434250116348267 -0.6582199931144714 -0.11859499663114548 -0.8615210056304932 -0.5055080056190491 0.04736800119280815
          -0.8654909729957581 -0.4629960060119629 0.1912049949169159 -0.9124249815940857 -0.3984749913215637 0.09325899928808212
          -0.9237779974937439 -0.3681989908218384 0.10518799722194672 -0.9794470071792603 -0.2010290026664734 -0.016464000567793846
          -0.9605429768562317 -0.25609099864959717 -0.10851500183343887 -0.9045739769935608 -0.4248479902744293 0.03534799814224243
          -0.8233579993247986 -0.5496439933776855 -0.1413249969482422 -0.7365970015525818 0.32065799832344055 -0.5954859852790833
          -0.7826120257377625 0.3268530070781708 -0.5297979712486267 -0.6805369853973389 0.4172300100326538 -0.6023190021514893
          -0.7666320204734802 0.41538500785827637 -0.4896230101585388 -0.5847920179367065 0.6081290245056152 -0.53684002161026
          -0.9870420098304749 -0.11246699839830399 -0.11445300281047821 -0.84968101978302 0.4749689996242523 -0.22901199758052826
          -0.924875020980835 -0.37428098917007446 -0.0672290027141571 -0.9062319993972778 -0.3849410116672516 -0.1748259961605072
          -0.838811993598938 0.2759079933166504 -0.46932798624038696 -0.9340919852256775 -0.2836500108242035 -0.21682700514793396
          -0.9114270210266113 -0.02484999969601631 -0.41071099042892456 -0.8972300291061401 -0.29958799481391907 -0.32438600063323975
          -0.9336680173873901 -0.10394199937582016 -0.34272500872612 -0.9415609836578369 -0.29798099398612976 -0.15707099437713623
          -0.838109016418457 0.23829500377178192 -0.4907020032405853 -0.9098470211029053 0.09035100042819977 -0.40498700737953186
          -0.8538500070571899 0.17530299723148346 -0.49011099338531494 -0.9163730144500732 0.2760550081729889 -0.28992000222206116
          -0.824629008769989 0.33250901103019714 -0.4576300084590912 -0.8577150106430054 0.2620140016078949 -0.44235000014305115
          -0.8851320147514343 0.14956900477409363 -0.44064798951148987 -0.9555389881134033 0.13024699687957764 -0.2645399868488312
          -0.3036769926548004 0.7646700143814087 -0.5683839917182922 -0.5478960275650024 0.5485309958457947 -0.631604015827179
          -0.40196600556373596 0.7313410043716431 -0.5509660243988037 -0.5997999906539917 0.5804929733276367 -0.5506970286369324
          -0.4577229917049408 0.7151100039482117 -0.5283060073852539 -0.5170230269432068 0.7054489850997925 -0.48479801416397095
          -0.41958698630332947 0.7351430058479309 -0.5324580073356628 -0.3703239858150482 0.7506750226020813 -0.5471259951591492
          -0.6711410284042358 0.5823519825935364 -0.4587329924106598 -0.7704390287399292 0.5182530283927917 -0.3712649941444397
          -0.9245280027389526 0.2772049903869629 -0.26154500246047974 -0.9683049917221069 0.16633400321006775 -0.1863279938697815
          -0.9158700108528137 0.25783801078796387 -0.30773699283599854 -0.8884639739990234 0.35719600319862366 -0.28817200660705566
          -0.9836599826812744 0.024924999102950096 -0.17830200493335724 -0.9394590258598328 0.10316099971532822 -0.32676398754119873
          -0.990909993648529 0.11563099920749664 -0.06875099986791611 -0.9986230134963989 0.037452999502420425 0.036729998886585236
          -0.9786520004272461 -0.06359799951314926 0.1954360008239746 -0.7109249830245972 -0.4477289915084839 -0.5423319935798645
          -0.8106200098991394 -0.2036619931459427 -0.5490139722824097 -0.6712160110473633 -0.5165029764175415 -0.5316900014877319
          -0.6831579804420471 -0.25826799869537354 -0.683076024055481 -0.7497720122337341 -0.011865999549627304 -0.6615890264511108
          -0.7790409922599792 -0.40942099690437317 -0.47483500838279724 -0.7364450097084045 -0.170414000749588 -0.6546810269355774
          -0.843904972076416 -0.2531619966030121 -0.473004013299942 -0.62922602891922 0.37239500880241394 -0.682200014591217
          -0.6276620030403137 0.2691909968852997 -0.7304630279541016 -0.5646610260009766 0.028550999239087105 -0.8248289823532104
          -0.6245949864387512 0.39544999599456787 -0.673425018787384 -0.7938079833984375 -0.37256699800491333 -0.48069098591804504
          -0.8532469868659973 -0.3952670097351074 -0.34019601345062256 -0.8243589997291565 -0.19157500565052032 -0.5326640009880066
          -0.7393230199813843 -0.04090699926018715 -0.6721069812774658 -0.6650559902191162 0.522799015045166 -0.5332750082015991
          -0.7511709928512573 0.28631800413131714 -0.5947809815406799 -0.5946729779243469 0.5026739835739136 -0.6274420022964478
          -0.7733929753303528 0.26803600788116455 -0.5744730234146118 -0.36204099655151367 0.7648469805717468 -0.5328570008277893
          -0.7672610282897949 0.2569830119609833 -0.5875970125198364 -0.6785230040550232 0.2995220124721527 -0.6707410216331482
          0.7575790286064148 0.30047500133514404 -0.5794730186462402 -0.7458040118217468 0.27744200825691223 -0.6056420207023621
          -0.616034984588623 0.29003000259399414 -0.7323819994926453 -0.49665701389312744 0.38839301466941833 -0.7761980295181274
          -0.5888580083847046 0.354420006275177 -0.7263839840888977 -0.3260959982872009 0.634227991104126 -0.7010110020637512
          -0.4002859890460968 0.6235160231590271 -0.6715649962425232 -0.44010499119758606 0.4283739924430847 -0.7891790270805359
          -0.5738319754600525 0.2630529999732971 -0.7755770087242126 -0.509361982345581 0.21021300554275513 -0.8344830274581909
          -0.6478880047798157 0.34081199765205383 -0.681240975856781 -0.6718119978904724 0.3066970109939575 -0.6742449998855591
          -0.6247209906578064 0.45114800333976746 -0.6373289823532104 -0.7039600014686584 0.3104130029678345 -0.6388139724731445
          -0.4915440082550049 0.5164179801940918 -0.7012109756469727 -0.9496039748191833 -0.28625398874282837 -0.12771199643611908
          -0.909857988357544 -0.4147450029850006 -0.012037999927997589 -0.9470250010490417 -0.31043699383735657 0.08229199796915054
          -0.9423729777336121 -0.3033129870891571 -0.14118799567222595 -0.8930699825286865 -0.33403998613357544 -0.3014020025730133
          -0.8909400105476379 -0.4214310050010681 -0.16918200254440308 -0.880154013633728 -0.33805298805236816 -0.33324098587036133
          -0.8863019943237305 -0.4378319978713989 -0.15090399980545044 -0.8829630017280579 -0.45538800954818726 0.11400800198316574
          -0.6784160137176514 -0.7286790013313293 -0.09369900077581406 -0.7738609910011292 -0.6294770240783691 0.06998699903488159
          -0.6297670006752014 -0.7749320268630981 -0.05361400172114372 -0.8809270262718201 -0.45058101415634155 0.14471900463104248
          -0.860759973526001 -0.4898799955844879 0.1382399946451187 -0.8858940005302429 -0.42553600668907166 0.18469099700450897
          -0.8184509873390198 -0.5644689798355103 0.10729499906301498 -0.7860649824142456 -0.5956370234489441 0.16528600454330444
          -0.9086269736289978 -0.3961699903011322 0.13208100199699402 -0.9519129991531372 -0.23250199854373932 0.19950999319553375
          -0.7722839713096619 -0.6333969831466675 0.048840999603271484 -0.6173220276832581 0.2861950099468231 -0.7328069806098938
          -0.40586400032043457 0.6604530215263367 -0.631725013256073 -0.6056540012359619 0.417820006608963 -0.6772069931030273
          -0.5080940127372742 0.6706200242042542 -0.5404710173606873 -0.2624509930610657 0.8221319913864136 -0.50519198179245
          -0.8649140000343323 -0.019027000293135643 -0.5015590190887451 -0.8591499924659729 -0.18023400008678436 -0.47893399000167847
          -0.9053030014038086 -0.07746099680662155 -0.4176430106163025 -0.9139860272407532 -0.10855899751186371 -0.390953004360199
          -0.9535459876060486 -0.23198099434375763 -0.19218499958515167 -0.9368919730186462 -0.3469479978084564 0.04313100129365921
          -0.9417600035667419 -0.3333509862422943 0.04433299973607063 -0.9005339741706848 0.02649799920618534 -0.43397799134254456
          -0.9602670073509216 -0.22709499299526215 -0.16221700608730316 -0.9703069925308228 -0.10574600100517273 -0.21753700077533722
          -0.9512349963188171 -0.30285799503326416 0.0585549995303154 -0.8919289708137512 0.3262859880924225 -0.3130500018596649
          -0.9106159806251526 0.2262589931488037 -0.3458099961280823 -0.8377609848976135 0.35120201110839844 -0.4181079864501953
          -0.9700899720191956 -0.0026310000102967024 -0.2427300065755844 -0.07012899965047836 0.8829209804534912 -0.4642550051212311
          -0.14096100628376007 0.8680670261383057 -0.47601398825645447 -0.24409699440002441 0.8470079898834229 -0.4722230136394501
          -0.12704800069332123 0.8371859788894653 -0.5319569706916809 -0.2352679967880249 0.8192269802093506 -0.5229870080947876
          -0.5345680117607117 0.7270560264587402 -0.4308440089225769 -0.6736879944801331 0.586670994758606 -0.44940200448036194
          -0.4550060033798218 0.7397850155830383 -0.49566900730133057 -0.8596760034561157 0.4177350103855133 -0.2940309941768646
          -0.8148180246353149 0.4127790033817291 -0.407043993473053 -0.7858489751815796 0.449411004781723 -0.4248189926147461
          -0.9954479932785034 0.08474300056695938 -0.04360099881887436 -0.9790859818458557 -0.09031499922275543 -0.18229900300502777
          -0.9975510239601135 0.01128700003027916 -0.069022998213768 -0.977171003818512 0.051309000700712204 0.20616599917411804
          -0.9937430024147034 0.0820159986615181 0.07581999897956848 -0.9881319999694824 0.05042099952697754 0.14509500563144684
          -0.8795909881591797 -0.12472400069236755 0.4590910077095032 -0.952468991279602 -0.007441000081598759 0.30454298853874207
          -0.9334650039672852 -0.18255500495433807 0.3087339997291565 -0.9013630151748657 0.035725999623537064 0.4315890073776245
          -0.8054879903793335 -0.3442850112915039 -0.48234501481056213 -0.5104820132255554 -0.6211249828338623 -0.594651997089386
          -0.4212169945240021 -0.6720839738845825 -0.6089980006217957 -0.5929570198059082 -0.5298439860343933 -0.6063560247421265
          -0.7926729917526245 -0.3868750035762787 -0.4711669981479645 -0.7498909831047058 -0.026938999071717262 -0.6610119938850403
          -0.6675009727478027 -0.36272600293159485 -0.6502860188484192 -0.5191550254821777 -0.6415619850158691 -0.5646910071372986
          -0.7666260004043579 -0.37886399030685425 -0.5184080004692078 -0.4754759967327118 -0.19659200310707092 -0.8574820160865784
          -0.5693060159683228 -0.32816800475120544 -0.7537879943847656 -0.4900679886341095 -0.08583299815654755 -0.8674479722976685
          -0.4703890085220337 0.44036298990249634 -0.7647309899330139 0.2131350040435791 0.5465540289878845 -0.8098469972610474
          -0.4285629987716675 0.5988180041313171 -0.6765739917755127 -0.3932279944419861 0.2784459888935089 -0.8762649893760681
          -0.29385799169540405 0.060896001756191254 -0.9539070129394531 -0.29363301396369934 -0.1035190001130104 -0.9502959847450256
          -0.6200630068778992 0.5260760188102722 -0.582036018371582 -0.5739870071411133 -0.42527198791503906 -0.6997730135917664
          -0.6102589964866638 -0.48969200253486633 -0.6227239966392517 -0.7265049815177917 -0.43227800726890564 -0.5341590046882629
          -0.6803640127182007 -0.15326499938964844 -0.7166690230369568 -0.7140499949455261 -0.026520999148488045 -0.6995919942855835
          -0.4572319984436035 0.7032600045204163 -0.5443940162658691 -0.4641929864883423 0.46253299713134766 -0.7553730010986328
          -0.6344389915466309 0.5032809972763062 -0.5866820216178894 -0.23889300227165222 0.7762839794158936 -0.5833640098571777
          -0.0786060020327568 0.8925290107727051 -0.4440859854221344 0.004811999853700399 0.8971160054206848 -0.441769003868103
          -0.4661079943180084 0.6365860104560852 -0.6144120097160339 -0.5205280184745789 0.4953089952468872 -0.6955000162124634
          -0.6671860218048096 0.24915499985218048 -0.7019860148429871 0.43755799531936646 0.3995389938354492 -0.8055509924888611
          0.7527549862861633 0.44096699357032776 -0.48878198862075806 -0.30054399371147156 0.5579109787940979 -0.7735689878463745
          -0.5517039895057678 0.28771400451660156 -0.7828429937362671 -0.14095500111579895 0.5638560056686401 -0.8137549757957458
          -0.3537760078907013 0.38129401206970215 -0.8540830016136169 -0.45892399549484253 0.18720899522304535 -0.8685280084609985
          -0.33529600501060486 0.502934992313385 -0.796638011932373 -0.47887399792671204 0.1909479945898056 -0.8568660020828247
          -0.32407501339912415 0.6119899749755859 -0.721418023109436 -0.3188140094280243 0.7236469984054565 -0.6121219992637634
          0.02152100019156933 0.8344150185585022 -0.5507169961929321 -0.8713139891624451 -0.4853990077972412 0.07210399955511093
          -0.8480889797210693 -0.5282220244407654 -0.04154599830508232 -0.7323539853096008 -0.677515983581543 0.06804999709129333
          -0.7571920156478882 -0.649196982383728 0.07213699817657471 -0.821711003780365 -0.5462759733200073 -0.1624010056257248
          -0.8588590025901794 -0.49272799491882324 -0.1399330049753189 -0.7619280219078064 -0.6296560168266296 -0.1516530066728592
          -0.6919999718666077 -0.714851975440979 -0.10061100125312805 -0.8386809825897217 -0.3087080121040344 -0.44868001341819763
          -0.8362939953804016 -0.47886401414871216 -0.2670240104198456 -0.8713129758834839 -0.4527420103549957 -0.18931099772453308
          -0.7896429896354675 -0.6069170236587524 -0.09008199721574783 -0.7486479878425598 -0.6510559916496277 -0.12511199712753296
          -0.7279319763183594 -0.6832020282745361 -0.05788100138306618 -0.7564460039138794 -0.6397789716720581 0.1359100043773651
          -0.6750450134277344 -0.7297589778900146 0.10847300291061401 -0.642874002456665 -0.7492070198059082 0.1593800038099289
          -0.6219930052757263 -0.78302001953125 0.0019280000124126673 -0.8392030000686646 -0.5252249836921692 0.14098599553108215
          -0.7296789884567261 -0.6819930076599121 0.049539998173713684 -0.8827729821205139 -0.45542699098587036 0.11531899869441986
          -0.6746810078620911 -0.7157750129699707 0.18019899725914001 -0.8118389844894409 -0.5578579902648926 0.1723710000514984
          -0.7422710061073303 -0.6403070092201233 0.19758500158786774 -0.7186689972877502 -0.6947439908981323 -0.029099000617861748
          -0.7766789793968201 -0.5218030214309692 0.35283300280570984 -0.7417309880256653 -0.6566550135612488 0.13652899861335754
          -0.8367779850959778 -0.5043240189552307 0.2132119983434677 -0.6675140261650085 -0.7255970239639282 0.16713200509548187
          -0.5519909858703613 -0.8136979937553406 0.18221500515937805 -0.5106899738311768 -0.8279560208320618 0.23170000314712524
          -0.9078590273857117 -0.29442599415779114 0.2985039949417114 -0.8443199992179871 -0.5163739919662476 0.14311599731445312
          -0.8868529796600342 -0.3886669874191284 0.2498600035905838 -0.7474409937858582 -0.6620950102806091 0.05441400036215782
          -0.1728609949350357 0.8500149846076965 -0.49758899211883545 -0.10372500121593475 0.8499770164489746 -0.5165089964866638
          -0.9766250252723694 -0.20974700152873993 0.04700599983334541 -0.8953030109405518 -0.34160900115966797 0.2858960032463074
          -0.8930000066757202 -0.3441329896450043 0.290039986371994 -0.9702550172805786 -0.22277100384235382 0.09475599974393845
          -0.9882569909095764 -0.09660399705171585 0.11838600039482117 -0.7962960004806519 0.4398910105228424 -0.4152219891548157
          -0.9179499745368958 0.3025979995727539 -0.25652000308036804 -0.9901009798049927 0.14010700583457947 -0.00836700014770031
          -0.8592129945755005 0.4803540110588074 -0.17610600590705872 -0.9980589747428894 -0.050586998462677 0.03631500154733658
          -0.07056800276041031 0.8587849736213684 -0.5074530243873596 -0.003942999988794327 0.840857982635498 -0.5412420034408569
          -0.12304800003767014 0.8167319893836975 -0.5637440085411072 -0.2290080040693283 0.8131920099258423 -0.5350459814071655
          -0.20118600130081177 0.7422360181808472 -0.6392260193824768 -0.3600890040397644 0.7685819864273071 -0.5287879705429077
          -0.6272889971733093 0.5830190181732178 -0.5163310170173645 -0.662992000579834 0.6221449971199036 -0.4163849949836731
          -0.5271000266075134 0.6719300150871277 -0.5202640295028687 -0.6853629946708679 0.6023010015487671 -0.40928199887275696
          -0.3471440076828003 0.7851330041885376 -0.5128920078277588 -0.9767100214958191 -0.007813000120222569 0.21442300081253052