<?xml version="1.0"?>
<VTKFile type="PolyData" version="0.1" byte_order="LittleEndian" header_type="UInt32" compressor="vtkZLibDataCompressor">
  <PolyData>
    <Piece NumberOfPoints="2270" NumberOfVerts="0" NumberOfLines="0" NumberOfStrips="0" NumberOfPolys="4536">
      <PointData Normals="Normals">
        <DataArray type="Float32" Name="Normals" NumberOfComponents="3" format="ascii" RangeMin="0.9999991854013897" RangeMax="1.0000007876871944">
          -0.3309830129146576 -0.3218440115451813 0.887054979801178 -0.5018600225448608 -0.3902660012245178 0.7718989849090576
          -0.5737370252609253 -0.4539850056171417 0.6817070245742798 -0.5340129733085632 -0.4191870093345642 0.7342429757118225
          -0.3430910110473633 -0.24798999726772308 0.9059739708900452 -0.2896200120449066 -0.36353600025177 0.8854159712791443
          -0.10926099866628647 -0.2700980007648468 0.9566130042076111 -0.21667200326919556 -0.2018280029296875 0.9551540017127991
          -0.6652020215988159 -0.5176420211791992 0.5381010174751282 -0.5748260021209717 -0.3914250135421753 0.7185829877853394
          -0.7113990187644958 -0.5764250159263611 0.40205198526382446 -0.7086340188980103 -0.5543779730796814 0.4364660084247589
          -0.5610870122909546 -0.5571150183677673 0.6122130155563354 -0.41735899448394775 -0.4487929940223694 0.7901880145072937
          -0.6345160007476807 -0.3158699870109558 0.7054190039634705 -0.4056429862976074 -0.20839199423789978 0.8899580240249634
          -0.2221270054578781 -0.14480799436569214 0.9642050266265869 -0.10501600056886673 -0.15514099597930908 0.9822949767112732
          -0.1462080031633377 -0.12631599605083466 0.9811559915542603 -0.13503700494766235 -0.3895309865474701 0.9110599756240845
          0.053282998502254486 -0.2269349992275238 0.9724509716033936 -0.7340369820594788 -0.6658260226249695 0.13366200029850006
          -0.7610219717025757 -0.4501439929008484 0.4671359956264496 -0.7577270269393921 -0.5773749947547913 0.30411699414253235
          -0.6808859705924988 -0.38849198818206787 0.6208609938621521 -0.752472996711731 -0.6347219944000244 0.175819993019104
          -0.7333629727363586 -0.6719099879264832 0.1035190001130104 -0.6649270057678223 -0.6998500227928162 0.2609269917011261
          -0.4746130108833313 -0.7078459858894348 0.5231599807739258 -0.369284987449646 -0.523052990436554 0.7681429982185364
          -0.6010329723358154 -0.21094000339508057 0.7708849906921387 -0.8438100218772888 -0.28350600600242615 0.4556410014629364
          -0.7823799848556519 -0.2652049958705902 0.563513994216919 -0.29044100642204285 -0.04148099943995476 0.9559929966926575
          -0.4712739884853363 -0.07978100329637527 0.878371000289917 -0.23185500502586365 -0.04745899885892868 0.9715920090675354
          -0.12519900500774384 -0.13376900553703308 0.9830719828605652 -0.04126400128006935 -0.1774670034646988 0.983260989189148
          -0.04115699976682663 -0.386355996131897 0.9214310050010681 0.08251599967479706 -0.21484500169754028 0.9731559753417969
          -0.300570011138916 -0.6025840044021606 0.7392899990081787 -0.10665000230073929 -0.5144469738006592 0.8508650064468384
          0.057652998715639114 -0.13177600502967834 0.9896020293235779 0.2926270067691803 -0.08521699905395508 0.952422022819519
          -0.757053017616272 -0.652961015701294 -0.022648999467492104 -0.7469450235366821 -0.6127129793167114 -0.2581790089607239
          -0.7116180062294006 -0.6835139989852905 -0.16250599920749664 -0.8233759999275208 -0.5509229898452759 0.1361439973115921
          -0.8524349927902222 -0.4990899860858917 0.15577200055122375 -0.8366730213165283 -0.512336015701294 0.19362400472164154
          -0.8678320050239563 -0.43026599287986755 0.24847300350666046 -0.6039310097694397 -0.7954469919204712 -0.05031200125813484
          -0.5485919713973999 -0.8234480023384094 0.14484700560569763 -0.4402489960193634 -0.7825109958648682 0.44029301404953003
          -0.7548099756240845 -0.12408900260925293 0.64410001039505 -0.9033240079879761 -0.4079720079898834 0.13252900540828705
          -0.9099940061569214 -0.34170201420783997 0.23484300076961517 -0.8762040138244629 -0.16923600435256958 0.45124998688697815
          -0.835444986820221 -0.016078999266028404 0.5493389964103699 -0.8810240030288696 -0.2198369950056076 0.41888898611068726
          -0.39876699447631836 0.020488999783992767 0.9168230295181274 -0.291359007358551 0.11733400076627731 0.9493910074234009
          -0.6156200170516968 0.008222999982535839 0.7879999876022339 -0.30599701404571533 0.1833149939775467 0.9342169761657715
          -0.2063480019569397 -0.0005579999997280538 0.9784790277481079 -0.3150489926338196 0.06893999874591827 0.9465680122375488
          -0.13636299967765808 -0.09100800007581711 0.9864699840545654 0.053922999650239944 -0.24333900213241577 0.9684410095214844
          -0.02823599986732006 -0.5714240074157715 0.8201689720153809 0.04578100144863129 -0.5456219911575317 0.8367800116539001
          -0.0500820018351078 -0.46361100673675537 0.8846219778060913 0.2629059851169586 -0.0944020003080368 0.9601920247077942
          -0.25685301423072815 -0.6966620087623596 0.6698409914970398 0.08305999636650085 0.03202499821782112 0.9960299730300903
          0.28954100608825684 -0.01419300027191639 0.9570599794387817 0.22464300692081451 0.014779999852180481 0.9743289947509766
          0.37625399231910706 -0.012928999960422516 0.9264259934425354 0.4644150137901306 -0.06716299802064896 0.8830680251121521
          0.49937400221824646 -0.057440001517534256 0.8644809722900391 0.45111599564552307 -0.036862000823020935 0.8917040228843689
          -0.8182910084724426 -0.5666239857673645 -0.09662599861621857 -0.6711400151252747 -0.6305149793624878 -0.38989999890327454
          -0.8433259725570679 -0.5230330228805542 -0.1234389990568161 -0.7762240171432495 -0.5697460174560547 -0.2699350118637085
          -0.7323110103607178 -0.5707730054855347 -0.37140101194381714 -0.688165009021759 -0.5890780091285706 -0.4235750138759613
          -0.6543909907341003 -0.6504499912261963 -0.3856000006198883 -0.6362299919128418 -0.7001879811286926 -0.3239560127258301
          -0.586546003818512 -0.8033490180969238 -0.1029219999909401 -0.5816360116004944 -0.8068640232086182 0.10329300165176392
          -0.4807389974594116 -0.7970290184020996 0.36556100845336914 -0.8845970034599304 0.003252000082284212 0.46634501218795776
          -0.7472090125083923 0.06459300220012665 0.6614429950714111 -0.9190750122070312 -0.3938170075416565 0.014488999731838703
          -0.9400680065155029 -0.27853500843048096 0.19669799506664276 -0.9163240194320679 0.010660000145435333 0.40029698610305786
          -0.810230016708374 0.23203200101852417 0.5382270216941833 -0.8743870258331299 -0.04401899874210358 0.48322799801826477
          -0.8722879886627197 0.260250985622406 0.4139840006828308 -0.5788040161132812 0.14758500456809998 0.8019999861717224
          -0.44240298867225647 0.31429100036621094 0.8399410247802734 -0.40150898694992065 0.34281599521636963 0.8492749929428101
          -0.4657529890537262 0.33832499384880066 0.8176860213279724 -0.281497985124588 0.2625040113925934 0.9229580163955688
          -0.1755329966545105 0.12924900650978088 0.9759520292282104 -0.046884000301361084 0.052379000931978226 0.9975259900093079
          0.05412499979138374 -0.3870280086994171 0.9204779863357544 0.27708700299263 -0.18844099342823029 0.9421849846839905
          -0.10047099739313126 -0.7059850096702576 0.7010639905929565 -0.02870500087738037 -0.6696400046348572 0.7421309947967529
          -0.013961000367999077 -0.5738199949264526 0.8188620209693909 -0.07647699862718582 -0.5512199997901917 0.830847978591919
          0.41422298550605774 -0.10177399963140488 0.904466986656189 -0.3658060133457184 -0.8411740064620972 0.39826300740242004
          0.2883110046386719 0.08873499929904938 0.9534170031547546 0.11727800220251083 0.11451400071382523 0.9864749908447266
          0.32260799407958984 0.0026660000439733267 0.946528971195221 0.4919539988040924 -0.06976799666881561 0.8678209781646729
          0.3765920102596283 -0.07484599947929382 0.923350989818573 0.4270220100879669 -0.1233540028333664 0.8957880139350891
          0.5315120220184326 -0.14409300684928894 0.8347049951553345 0.5308610200881958 -0.1701350063085556 0.8302050232887268
          0.5578420162200928 -0.060217998921871185 0.8277599811553955 0.48876699805259705 -0.12762300670146942 0.8630290031433105
          -0.6347669959068298 -0.605804979801178 -0.47965699434280396 -0.7934820055961609 -0.5280879735946655 -0.3025059998035431
          -0.8917589783668518 -0.4404489994049072 -0.10378000140190125 -0.6923630237579346 -0.5108889937400818 -0.509535014629364
          -0.6705300211906433 -0.7367630004882812 -0.08700399845838547 -0.5988730192184448 -0.7872470021247864 -0.14694300293922424
          -0.6628109812736511 -0.5790870189666748 -0.4746989905834198 -0.6467429995536804 -0.6575490236282349 -0.38646200299263
          -0.574612021446228 -0.8106250166893005 0.11272700130939484 -0.9449340105056763 0.15845200419425964 0.2863439917564392
          -0.8388379812240601 0.1836470067501068 0.5124689936637878 -0.9393720030784607 -0.3390119969844818 0.05149200186133385
          -0.9262210130691528 -0.05664899945259094 0.3727000057697296 -0.8115149736404419 0.31981000304222107 0.48904499411582947
          -0.9053639769554138 0.13733400404453278 0.4018149971961975 -0.7911819815635681 0.4182269871234894 0.44622600078582764
          -0.9010319709777832 0.33224600553512573 0.27884501218795776 -0.7969599962234497 0.4808340072631836 0.3655869960784912
          -0.7223389744758606 0.34857499599456787 0.5972620248794556 -0.5256630182266235 0.38833698630332947 0.756883978843689
          -0.6052590012550354 0.41328200697898865 0.6803380250930786 -0.700547993183136 0.42795899510383606 0.571038007736206
          -0.6342149972915649 0.45232799649238586 0.627032995223999 -0.28479599952697754 0.42406898736953735 0.8596839904785156
          -0.05910399928689003 0.2030089944601059 0.9773910045623779 0.2975670099258423 -0.32451799511909485 0.8978539705276489
          0.07012899965047836 -0.5075219869613647 0.858780026435852 -0.24188999831676483 -0.8509699702262878 0.4661960005760193
          -0.20399700105190277 -0.8553990125656128 0.47610700130462646 -0.3012309968471527 -0.8719599843025208 0.3859350085258484
          -0.1913360059261322 -0.8002570271492004 0.5683130025863647 -0.0723780021071434 -0.6335620284080505 0.7702990174293518
          0.10417599976062775 -0.5200269818305969 0.847773015499115 0.14705200493335724 -0.5482779741287231 0.8232660293579102
          0.17564499378204346 -0.5466060042381287 0.8187620043754578 0.09830799698829651 -0.5161929726600647 0.8508120179176331
          -0.4859899878501892 -0.8699250221252441 0.08392900228500366 0.24149100482463837 0.0636880025267601 0.9683110117912292
          0.16901099681854248 0.2013999968767166 0.964818000793457 0.29371100664138794 -0.10090799629688263 0.9505529999732971
          0.4818669855594635 -0.11466299742460251 0.8687099814414978 0.5271199941635132 -0.12380599975585938 0.840723991394043
          0.5255590081214905 -0.16755500435829163 0.8340939879417419 0.4281010031700134 -0.18431100249290466 0.8847370147705078
          0.6296169757843018 -0.2318969964981079 0.7414889931678772 0.6014999747276306 -0.16680699586868286 0.7812640070915222
          0.6012870073318481 -0.19136199355125427 0.7757800221443176 0.4033460021018982 -0.3463220000267029 0.846979022026062
          -0.6647689938545227 -0.5347700119018555 -0.5216360092163086 -0.8697389960289001 -0.4464679956436157 -0.21028700470924377
          -0.7800909876823425 -0.3383390009403229 -0.5262929797172546 -0.5288640260696411 -0.40129899978637695 -0.747838020324707
          0.38082200288772583 -0.5709450244903564 -0.727321982383728 -0.5509870052337646 -0.820186972618103 -0.15397000312805176
          -0.6095010042190552 -0.7382580041885376 -0.28893598914146423 -0.6704890131950378 -0.4287889897823334 -0.6054610013961792
          -0.720757007598877 -0.5046659708023071 -0.47520700097084045 -0.7661749720573425 -0.5511230230331421 -0.33051300048828125
          -0.7282140254974365 -0.5391629934310913 -0.4230929911136627 -0.6848750114440918 -0.6115880012512207 -0.3961139917373657
          -0.6526749730110168 -0.61039799451828 -0.44881001114845276 -0.6954659819602966 -0.6005139946937561 -0.3946000039577484
          -0.4953419864177704 -0.5998139977455139 -0.6283779740333557 -0.9347479939460754 -0.3346399962902069 -0.1194240003824234
          -0.9723529815673828 -0.12961800396442413 0.19423900544643402 -0.9585930109024048 0.16186000406742096 0.23430800437927246
          -0.8951110243797302 0.34210601449012756 0.2858999967575073 -0.993058979511261 -0.10341399908065796 0.05602100118994713
          -0.9217919707298279 0.36715200543403625 0.12449300289154053 -0.8928250074386597 0.3945089876651764 0.21731600165367126
          -0.8191050291061401 0.4484809935092926 0.3576759994029999 -0.8004869818687439 0.4610919952392578 0.38290199637413025
          -0.6786209940910339 0.5459970235824585 0.4912849962711334 -0.7335129976272583 0.4935869872570038 0.4672580063343048
          -0.8065800070762634 0.47006499767303467 0.35842499136924744 -0.7807469964027405 0.5077769756317139 0.36413800716400146
          -0.5882570147514343 0.5239539742469788 0.6159759759902954 -0.05378599837422371 0.29510998725891113 0.9539480209350586
          0.03820599988102913 0.27998000383377075 0.9592450261116028 -0.24123899638652802 0.5216900110244751 0.8183180093765259
          -0.4825330078601837 0.56489497423172 0.6693689823150635 -0.09367799758911133 0.36908799409866333 0.9246609807014465
          0.013364000245928764 0.40264400839805603 0.9152590036392212 -0.3984000086784363 -0.8917790055274963 0.2144930064678192
          -0.3998520076274872 -0.8866369724273682 0.2323630005121231 -0.30221301317214966 -0.7962509989738464 0.5240730047225952
          -0.5233100056648254 -0.8467450141906738 0.09575700014829636 -0.09396199882030487 -0.5812039971351624 0.8083149790763855
          0.15841899812221527 -0.4792900085449219 0.8632410168647766 0.42236098647117615 -0.3879010081291199 0.8192340135574341
          0.37721699476242065 -0.39801499247550964 0.8362360000610352 0.438726007938385 -0.3876599967479706 0.8107029795646667
          0.4228540062904358 -0.3923810124397278 0.8168429732322693 -0.5584369897842407 -0.8262029886245728 -0.07440900057554245
          0.2196049988269806 -0.10062900185585022 0.9703850150108337 0.18228699266910553 0.16780999302864075 0.9688190221786499
          0.14695100486278534 -0.08991999924182892 0.9850479960441589 0.14404499530792236 0.17193999886512756 0.9745190143585205
          0.20519499480724335 -0.17242899537086487 0.9634119868278503 0.28333601355552673 -0.26134398579597473 0.9227240085601807
          0.49391698837280273 -0.2745630145072937 0.8250219821929932 0.4490259885787964 -0.3296479880809784 0.8304870128631592
          0.707440972328186 -0.1994449943304062 0.6780480146408081 0.7608320116996765 -0.2877520024776459 0.5816640257835388
          0.5996999740600586 -0.35897698998451233 0.7151889801025391 0.7179340124130249 -0.34974798560142517 0.6018700003623962
          0.5868470072746277 -0.2396019995212555 0.7734339833259583 0.6777589917182922 -0.18033400177955627 0.7128270268440247
          0.5544679760932922 -0.2607420086860657 0.7903029918670654 -0.8666200041770935 -0.359622985124588 -0.3458920121192932
          -0.6996979713439941 -0.3188270032405853 -0.6393529772758484 -0.8653169870376587 -0.18313699960708618 -0.4665690064430237
          -0.6568689942359924 -0.3168869912624359 -0.6841830015182495 -0.8178690075874329 -0.05042300000786781 -0.5731909871101379
          -0.8260660171508789 -0.1074799969792366 -0.5532289743423462 0.7470120191574097 -0.30432599782943726 -0.591064989566803
          0.3536059856414795 -0.5418310165405273 -0.7624840140342712 -0.6677200198173523 -0.7221310138702393 -0.18076899647712708
          -0.6929230093955994 -0.44784000515937805 -0.565064013004303 -0.6790559887886047 -0.42373499274253845 -0.5994430184364319
          -0.7277340292930603 -0.3026440143585205 -0.6154749989509583 -0.7178009748458862 -0.2750990092754364 -0.6395959854125977
          -0.8248000144958496 -0.44134798645973206 -0.3534350097179413 -0.8254119753837585 -0.5276200175285339 -0.2007790058851242
          -0.824537992477417 -0.5050960183143616 -0.25498101115226746 -0.7649180293083191 -0.5667179822921753 -0.3061560094356537
          -0.7267979979515076 -0.5884630084037781 -0.3542250096797943 -0.8420119881629944 -0.5100600123405457 -0.1756560057401657
          -0.91976398229599 -0.26337701082229614 -0.29097598791122437 -0.9807440042495728 -0.04418399930000305 -0.1902340054512024
          -0.9806780219078064 0.1889140009880066 -0.05081100016832352 -0.9543740153312683 0.27974700927734375 -0.1044590026140213
          -0.9348250031471252 0.3374220132827759 0.11067400127649307 -0.9682049751281738 0.2119780033826828 -0.1328350007534027
          -0.9518229961395264 0.2997339963912964 -0.06475099921226501 -0.8914870023727417 0.4024159908294678 0.2081190049648285
          -0.6806420087814331 0.4795509874820709 0.5538560152053833 -0.6132540106773376 0.45888298749923706 0.6429200172424316
          -0.732446014881134 0.531728982925415 0.4251909852027893 -0.8101819753646851 0.5355119705200195 0.23839500546455383
          -0.8737789988517761 0.45524099469184875 0.1710759997367859 -0.9320589900016785 0.36214500665664673 -0.010804000310599804
          -0.7966489791870117 0.5625489950180054 0.22110900282859802 -0.6902850270271301 0.5729060173034668 0.4419110119342804
          0.1041480004787445 0.30971598625183105 0.9451079964637756 0.07761099934577942 0.2548840045928955 0.9638519883155823
          -0.471112996339798 0.6012399792671204 0.6454160213470459 -0.07517600059509277 0.46297499537467957 0.8831779956817627
          -0.24658499658107758 0.5756949782371521 0.7795969843864441 -0.4350320100784302 0.6486979722976685 0.6244500279426575
          -0.6822440028190613 0.6242169737815857 0.3806529939174652 0.0952489972114563 0.32399898767471313 0.9412500262260437
          0.057732000946998596 0.32079601287841797 0.9453870058059692 0.0024629998952150345 0.4799419939517975 0.8772969841957092
          -0.49607300758361816 -0.8681449890136719 0.015375000424683094 -0.4553169906139374 -0.8247069716453552 0.3354780077934265
          -0.054117001593112946 -0.6588979959487915 0.7502830028533936 -0.2406349927186966 -0.7527589797973633 0.6127390265464783
          -0.6995869874954224 -0.706637978553772 -0.10602200031280518 -0.5763490200042725 -0.8145509958267212 0.06579100340604782
          0.06602700054645538 -0.6064500212669373 0.7923750281333923 0.2320069968700409 -0.5292350053787231 0.8161389827728271
          0.4573259949684143 -0.3962379992008209 0.7961459755897522 0.5840489864349365 -0.29471200704574585 0.7563269734382629
          0.619841992855072 -0.23814499378204346 0.7477179765701294 0.6379740238189697 -0.3500809967517853 0.6858810186386108
          0.07996399700641632 -0.10978499799966812 0.9907339811325073 0.030324000865221024 0.08742400258779526 0.995710015296936
          0.0581200011074543 -0.06169300153851509 0.9964020252227783 0.11605899780988693 -0.20779399573802948 0.9712629914283752
          0.3122529983520508 -0.28612199425697327 0.905888020992279 0.14559200406074524 -0.23579399287700653 0.9608349800109863
          0.19576899707317352 -0.24495400488376617 0.9495639801025391 0.29681599140167236 -0.3443959951400757 0.8906700015068054
          0.3630000054836273 -0.29876500368118286 0.8825929760932922 0.5332909822463989 -0.3773390054702759 0.7571110129356384
          0.4481950104236603 -0.3244459927082062 0.8329799771308899 0.562690019607544 -0.41514500975608826 0.7148659825325012
          0.7733179926872253 -0.2353769987821579 0.5887079834938049 0.8422889709472656 -0.3325819969177246 0.42419201135635376
          0.7244250178337097 -0.394353985786438 0.5654150247573853 0.6704559922218323 -0.46806299686431885 0.5756779909133911
          0.788303017616272 -0.39399799704551697 0.47259199619293213 0.7622489929199219 -0.23401199281215668 0.6035019755363464
          -0.9260029792785645 0.02440599910914898 -0.3767260015010834 -0.7122200131416321 -0.20601800084114075 -0.6710439920425415
          -0.7384399771690369 -0.0783889964222908 -0.669746994972229 -0.8951280117034912 0.05056999996304512 -0.44293200969696045
          -0.8845589756965637 0.15462300181388855 -0.4400539994239807 -0.8057339787483215 0.11123599857091904 -0.5817379951477051
          -0.8996139764785767 0.13607099652290344 -0.41494500637054443 -0.7785300016403198 -0.3093459904193878 -0.5460739731788635
          -0.7549539804458618 -0.2356729954481125 -0.6119660139083862 -0.7392290234565735 -0.12804099917411804 -0.661171019077301
          -0.8619539737701416 -0.3741450011730194 -0.3421280086040497 -0.8767889738082886 -0.4583050012588501 -0.14559400081634521
          -0.8768759965896606 -0.40873900055885315 -0.25302401185035706 -0.809054970741272 -0.47181400656700134 -0.3504590094089508
          -0.8148049712181091 -0.4570780098438263 -0.35661399364471436 -0.7213450074195862 -0.681863009929657 -0.12134599685668945
          -0.7856860160827637 -0.5547329783439636 -0.2738029956817627 -0.836467981338501 -0.518468976020813 -0.1775140017271042
          -0.8070949912071228 -0.5316389799118042 -0.25682199001312256 -0.8280789852142334 -0.5042669773101807 -0.24494999647140503
          -0.8084660172462463 -0.5718680024147034 -0.1391039937734604 -0.9536330103874207 0.12244399636983871 -0.2749379873275757
          -0.9512829780578613 0.1754319965839386 -0.2535420060157776 -0.9345239996910095 0.2794179916381836 -0.22043299674987793
          -0.8524960279464722 0.48240000009536743 0.2013469934463501 -0.6885820031166077 0.5430030226707458 0.48062700033187866
          -0.7100589871406555 0.5376250147819519 0.4547260105609894 -0.7618629932403564 0.6091300249099731 0.22028300166130066
          -0.7024109959602356 0.555525004863739 0.44498398900032043 -0.8943259716033936 0.39496999979019165 -0.21018800139427185
          -0.9047449827194214 0.40107598900794983 -0.14344100654125214 -0.8723580241203308 0.35499098896980286 -0.33611398935317993
          -0.877240002155304 0.22821199893951416 -0.42233699560165405 -0.8667700290679932 0.22471800446510315 -0.4452100098133087
          -0.06989800184965134 0.2770420014858246 0.9583119750022888 -0.636247992515564 0.6565369963645935 0.40515199303627014
          -0.12988300621509552 0.5284429788589478 0.8389750123023987 -0.37127000093460083 0.7379980087280273 0.5634869933128357
          -0.15712200105190277 0.6302639842033386 0.7603150010108948 -0.6182669997215271 0.7010520100593567 0.35534700751304626
          0.06425199657678604 0.31611499190330505 0.9465429782867432 -0.03261199966073036 0.3301219940185547 0.9433749914169312
          -0.04131300002336502 0.32443100214004517 0.9450070261955261 -0.10034400224685669 0.48987001180648804 0.8660020232200623
          -0.06384000182151794 0.356687992811203 0.9320399761199951 -0.1595660001039505 0.7016729712486267 0.6944019794464111
          -0.42125898599624634 -0.9036589860916138 0.07708700001239777 -0.38601499795913696 -0.8840420246124268 0.26355600357055664
          -0.3281039893627167 -0.7874580025672913 0.5217840075492859 0.07824300229549408 -0.7356089949607849 0.672872006893158
          0.31803199648857117 -0.6003149747848511 0.7338110208511353 -0.16262799501419067 -0.8614100217819214 0.48116999864578247
          -0.5826470255851746 -0.8127220273017883 0.0024309998843818903 0.5327270030975342 -0.4848499894142151 0.6936299800872803
          0.6296120285987854 -0.49846500158309937 0.5959200263023376 0.8081139922142029 -0.3240419924259186 0.4918830096721649
          -0.06880400329828262 0.18054400384426117 0.9811570048332214 -0.1036669984459877 0.24887500703334808 0.9629719853401184
          0.0008089999901130795 -0.05354199931025505 0.9985650181770325 0.06694699823856354 -0.23645399510860443 0.9693329930305481
          0.3965800106525421 -0.455363005399704 0.7971000075340271 0.20346200466156006 -0.3678880035877228 0.90733802318573
          0.5151100158691406 -0.5081589818000793 0.6902440190315247 0.868054986000061 -0.2676759958267212 0.4181259870529175
          0.9186769723892212 -0.31677699089050293 0.23597800731658936 0.8842399716377258 -0.3792400062084198 0.2725740075111389
          0.7731419801712036 -0.4923720061779022 0.39977601170539856 0.6216570138931274 -0.573261022567749 0.5337740182876587
          0.8850259780883789 -0.24881500005722046 0.3934729993343353 0.8643209934234619 -0.23829899728298187 0.44290199875831604
          -0.761352002620697 -0.184689000248909 -0.6214759945869446 -0.6674020290374756 0.008836000226438046 -0.7446460127830505
          -0.7290369868278503 -0.07224400341510773 -0.6806510090827942 -0.823065996170044 0.16436900198459625 -0.5436409711837769
          -0.685699999332428 0.06405699998140335 -0.7250609993934631 0.9653559923171997 -0.08095599710941315 -0.24806000292301178
          0.7758150100708008 -0.03808100149035454 -0.6298099756240845 -0.8341689705848694 -0.11867500096559525 -0.5385890007019043
          -0.6206600069999695 -0.1421789973974228 -0.7710809707641602 -0.7993530035018921 -0.2991020083427429 -0.5211269855499268
          -0.7861559987068176 -0.22224600613117218 -0.5766850113868713 -0.7562010288238525 -0.021657999604940414 -0.653980016708374
          -0.581758975982666 0.010820000432431698 -0.8132889866828918 -0.7396910190582275 -0.11816299706697464 -0.6624910235404968
          -0.7612749934196472 -0.058122001588344574 -0.6458190083503723 -0.7690079808235168 -0.00011000000085914508 -0.6392390131950378
          -0.770717978477478 -0.4766499996185303 -0.4228450059890747 -0.7406889796257019 -0.49310699105262756 -0.4563170075416565
          -0.7199810147285461 -0.49702998995780945 -0.4843429923057556 -0.7525110244750977 -0.48059800267219543 -0.45028001070022583
          -0.7101809978485107 -0.44334399700164795 -0.5468909740447998 -0.5527949929237366 -0.824184000492096 -0.12303599715232849
          -0.5966690182685852 -0.8022810220718384 -0.01820800080895424 -0.8575770258903503 -0.5029929876327515 -0.10751400142908096
          -0.7561659812927246 -0.6489319801330566 -0.08425799757242203 -0.870343029499054 -0.48372599482536316 -0.09225799888372421
          -0.7376180291175842 -0.5544729828834534 -0.385329008102417 -0.8911070227622986 -0.4346260130405426 -0.13049499690532684
          -0.754397988319397 -0.537788987159729 -0.37638598680496216 -0.866756021976471 0.49313199520111084 0.07453600317239761
          -0.6157670021057129 0.6362730264663696 0.4647449851036072 -0.7442820072174072 0.49548301100730896 0.4478189945220947
          -0.8566229939460754 0.4919610023498535 0.15547199547290802 -0.9031239748001099 0.2550620138645172 -0.34541401267051697
          -0.5219839811325073 0.7392280101776123 0.42552900314331055 -0.32735300064086914 0.7661160230636597 0.5530890226364136
          -0.15713399648666382 0.35740700364112854 0.9206349849700928 -0.25472500920295715 0.501708984375 0.8266819715499878
          -0.2722170054912567 0.6807690262794495 0.6800379753112793 -0.3066929876804352 0.3385219871997833 0.8895739912986755
          -0.18528500199317932 0.3362340033054352 0.9233719706535339 -0.20445400476455688 0.29493600130081177 0.9333869814872742
          -0.23691700398921967 0.17052799463272095 0.9564470052719116 -0.5331529974937439 -0.8416799902915955 0.08557099848985672
          -0.22210000455379486 -0.9639809727668762 0.14632900059223175 -0.4846319854259491 -0.8531320095062256 0.19312499463558197
          -0.2648929953575134 -0.9048519730567932 0.333279013633728 -0.21219299733638763 -0.900646984577179 0.3792229890823364
          0.4515649974346161 -0.6161640286445618 0.6453149914741516 0.17292100191116333 -0.778003990650177 0.6039929986000061
          0.08250100165605545 -0.8455640077590942 0.5274609923362732 0.3987790048122406 -0.6539580225944519 0.642894983291626
          0.39386600255966187 -0.6622750163078308 0.6373869776725769 0.715041995048523 -0.4800420105457306 0.5082070231437683
          0.8385940194129944 -0.4445280134677887 0.31488800048828125 0.9011480212211609 -0.3000589907169342 0.31288400292396545
          -0.2478490024805069 0.3375549912452698 0.9080899953842163 -0.16335900127887726 0.1967490017414093 0.9667490124702454
          -0.07172200083732605 -0.03703700006008148 0.996737003326416 -0.013117999769747257 -0.30115100741386414 0.9534860253334045
          -0.13826200366020203 -0.0811619982123375 0.9870650172233582 0.22974500060081482 -0.4869289994239807 0.8426849842071533
          0.4642989933490753 -0.6162449717521667 0.636135995388031 0.39483699202537537 -0.66874098777771 0.6299909949302673
          0.3047559857368469 -0.539529025554657 0.7848770022392273 0.08323100209236145 -0.43024200201034546 0.8988680243492126
          0.9332900047302246 -0.302156001329422 0.1940920054912567 0.9266030192375183 -0.3760409951210022 -0.0005460000247694552
          0.8473700284957886 -0.48725199699401855 0.21106700599193573 0.7029770016670227 -0.6107739806175232 0.36438900232315063
          0.7655959725379944 -0.5766090154647827 0.2852799892425537 0.6313400268554688 -0.6930320262908936 0.34801799058914185
          0.5260159969329834 -0.6624699831008911 0.5333300232887268 0.9268829822540283 -0.2605240046977997 0.27021199464797974
          0.7572609782218933 0.05099700018763542 -0.6511179804801941 0.9601669907569885 -0.011908000335097313 -0.27917298674583435
          -0.826665997505188 0.10162899643182755 -0.5534399747848511 0.013650000095367432 0.07481399923563004 -0.9971039891242981
          -0.654915988445282 0.044162001460790634 -0.7544100284576416 0.3340339958667755 -0.11267100274562836 -0.9358029961585999