<?xml version="1.0"?>
<VTKFile type="PolyData" version="0.1" byte_order="LittleEndian" header_type="UInt32" compressor="vtkZLibDataCompressor">
  <PolyData>
    <Piece NumberOfPoints="2925" NumberOfVerts="0" NumberOfLines="0" NumberOfStrips="0" NumberOfPolys="5846">
      <PointData Normals="Normals">
        <DataArray type="Float32" Name="Normals" NumberOfComponents="3" format="ascii" RangeMin="0.9999993150142962" RangeMax="1.0000007784718725">
          -0.23568899929523468 0.4624519944190979 0.8547449707984924 -0.12476599961519241 0.5601819753646851 0.8189200162887573
          -0.12775999307632446 0.5593780279159546 0.8190069794654846 -0.19177399575710297 0.453792005777359 0.8702269792556763
          -0.22311800718307495 0.462662011384964 0.8579990267753601 -0.3620319962501526 0.33901700377464294 0.868332028388977
          -0.27913698554039 0.4144270122051239 0.8662170171737671 -0.2736699879169464 0.3961459994316101 0.8764550089836121
          -0.06521700322628021 0.5467479825019836 0.8347529768943787 -0.00431300001218915 0.5302969813346863 0.8478010296821594
          0.02901099994778633 0.6251519918441772 0.7799630165100098 0.23288699984550476 0.5774589776992798 0.7824990153312683
          -0.008124000392854214 0.5643380284309387 0.8255040049552917 -0.09918799996376038 0.5221530199050903 0.8470649719238281
          -0.10255300253629684 0.5174340009689331 0.849556028842926 -0.2766610085964203 0.3852039873600006 0.8803840279579163
          -0.13694599270820618 0.48820599913597107 0.8619170188903809 0.06718499958515167 0.4796519875526428 0.8748829960823059
          -0.3045789897441864 0.38921499252319336 0.8693349957466125 -0.36708399653434753 0.3218800127506256 0.8727210164070129
          0.09078200161457062 0.47217100858688354 0.8768200278282166 -0.0898130014538765 0.5171380043029785 0.8511760234832764
          -0.21985100209712982 0.499424010515213 0.8379979729652405 -0.28057700395584106 0.4244999885559082 0.8608580231666565
          -0.41534900665283203 0.2972770035266876 0.85971599817276 -0.4026699960231781 0.282137006521225 0.8707789778709412
          -0.411529004573822 0.2638239860534668 0.8723769783973694 -0.3949419856071472 0.31181800365448 0.8641700148582458
          -0.3563779890537262 0.309688001871109 0.881525993347168 -0.4390900135040283 0.35130399465560913 0.8269129991531372
          0.5545290112495422 0.44035500288009644 0.7061060070991516 0.011229000054299831 0.5820090174674988 0.8131049871444702
          0.8407689929008484 0.3262549936771393 0.4320479929447174 0.1147330030798912 0.5523300170898438 0.8256919980049133
          -0.13825400173664093 0.5390610098838806 0.8308429718017578 0.9477059841156006 0.18285499513149261 0.26156699657440186
          -0.26037800312042236 0.4592269957065582 0.8493019938468933 0.06441199779510498 0.6024379730224609 0.7955620288848877
          0.07348400354385376 0.5747759938240051 0.8150050044059753 -0.020052000880241394 0.526727020740509 0.8497980237007141
          0.0004250000056345016 0.5634120106697083 0.8261759877204895 -0.07800500094890594 0.5609170198440552 0.8241890072822571
          -0.058743998408317566 0.5595539808273315 0.8267099857330322 -0.10509199649095535 0.5131970047950745 0.851813018321991
          -0.12363400310277939 0.5467389822006226 0.828125 -0.3633260130882263 0.3077160120010376 0.8793780207633972
          0.5506619811058044 0.416934996843338 0.7231429815292358 0.9463130235671997 0.1688220053911209 0.27566400170326233
          -0.37696799635887146 0.33771398663520813 0.8624640107154846 -0.3420880138874054 0.3290880024433136 0.8801569938659668
          -0.4152030050754547 0.29883700609207153 0.859246015548706 -0.33143699169158936 0.4096499979496002 0.8499040007591248
          -0.503708004951477 0.15943099558353424 0.8490350246429443 -0.4796220064163208 0.22260700166225433 0.8487690091133118
          -0.4363720118999481 0.24551500380039215 0.8656219840049744 0.831725001335144 0.2823129892349243 0.4780519902706146
          -0.023706000298261642 0.5219969749450684 0.8526179790496826 -0.030736999586224556 0.5766710042953491 0.816398024559021
          0.2246280014514923 0.5158870220184326 0.8266819715499878 0.0010819999733939767 0.5493379831314087 0.8355990052223206
          -0.06911399960517883 0.5393059849739075 0.8392689824104309 -0.3290799856185913 0.5099809765815735 0.7947480082511902
          -0.13674500584602356 0.6531879901885986 0.7447460293769836 -0.21661099791526794 0.6038560271263123 0.767096996307373
          -0.3469119966030121 0.38148000836372375 0.856810986995697 -0.5731340050697327 0.18158499896526337 0.7990900278091431
          -0.5329620242118835 0.24452100694179535 0.8100370168685913 -0.4385479986667633 0.31953999400138855 0.8399819731712341
          -0.4792889952659607 0.1787550002336502 0.8592609763145447 -0.5728489756584167 0.1260260045528412 0.8099139928817749
          -0.4090229868888855 0.33487799763679504 0.8488569855690002 -0.46110999584198 0.21778300404548645 0.8602020144462585
          -0.4080510139465332 0.35684800148010254 0.8403300046920776 -0.35318100452423096 0.2899419963359833 0.8894929885864258
          -0.13167400658130646 0.5525320172309875 0.8230249881744385 0.09025699645280838 0.6279460191726685 0.773006021976471
          -0.028967000544071198 0.5707640051841736 0.8206030130386353 -0.19848500192165375 0.5000579953193665 0.842939019203186
          -0.34952598810195923 0.40961599349975586 0.8426430225372314 -0.25946998596191406 0.47376298904418945 0.8415610194206238
          0.20579299330711365 0.6590629816055298 0.7233840227127075 0.17879900336265564 0.6302490234375 0.7555239796638489
          0.2329919934272766 0.6187800168991089 0.7502170205116272 0.2289240062236786 0.5963889956474304 0.7693600058555603
          0.06858699768781662 0.5760809779167175 0.8145099878311157 0.15894100069999695 0.6475160121917725 0.7452930212020874
          0.03418700024485588 0.6069700121879578 0.7939890027046204 -0.08830499649047852 0.5611900091171265 0.8229629993438721
          -0.0597819983959198 0.5463230013847351 0.8354380130767822 -0.10113000124692917 0.5157009959220886 0.8507789969444275
          -0.13211099803447723 0.5411779880523682 0.8304659724235535 -0.5481789708137512 0.15031300485134125 0.8227429986000061
          -0.5746430158615112 0.25788000226020813 0.7767130136489868 -0.47279900312423706 0.3114509880542755 0.8242930173873901
          -0.6229299902915955 0.2000730037689209 0.7562599778175354 -0.41886401176452637 0.3744859993457794 0.8272330164909363
          -0.678413987159729 0.07667800039052963 0.730666995048523 -0.577360987663269 0.04006800055503845 0.8155050277709961
          -0.6098120212554932 0.0743660032749176 0.7890499830245972 -0.029620999470353127 0.6128069758415222 0.7896779775619507
          -0.054760999977588654 0.5785290002822876 0.8138219714164734 -0.2965010106563568 0.5492640137672424 0.7812780141830444
          -0.2251870036125183 0.4849820137023926 0.8450340032577515 -0.3867110013961792 0.5114970207214355 0.7673500180244446
          -0.4056679904460907 0.5974889993667603 0.6916940212249756 -0.35276100039482117 0.6331220269203186 0.6889960169792175
          -0.0921579971909523 0.662788987159729 0.7431139945983887 -0.1745380014181137 0.6787670254707336 0.7133100032806396
          -0.12792900204658508 0.6768040060997009 0.7249619960784912 -0.262239009141922 0.5847880244255066 0.7676290273666382
          -0.1622209995985031 0.6447979807853699 0.7469409704208374 -0.7061280012130737 0.04619799926877022 0.7065759897232056
          -0.7167040109634399 0.019876999780535698 0.6970949769020081 -0.3825959861278534 0.37495699524879456 0.8444100022315979
          -0.4135249853134155 0.3368920087814331 0.8458729982376099 -0.5417429804801941 0.23629599809646606 0.806647002696991
          -0.5700950026512146 0.08820799738168716 0.8168299794197083 -0.7039790153503418 -0.03887699916958809 0.7091559767723083
          -0.5918539762496948 0.06840100139379501 0.803138017654419 0.18704399466514587 0.6367319822311401 0.7480559945106506
          0.24294500052928925 0.6650170087814331 0.7062079906463623 -0.1905370056629181 0.5047820210456848 0.8419569730758667
          -0.06774800270795822 0.5665929913520813 0.8212080001831055 0.12765300273895264 0.6629229784011841 0.737725019454956
          -0.2908340096473694 0.4319019913673401 0.8537420034408569 -0.37934601306915283 0.36387598514556885 0.8507000207901001
          0.3807060122489929 0.6819400191307068 0.6245160102844238 0.39790698885917664 0.6893960237503052 0.6053119897842407
          0.3940950036048889 0.6689389944076538 0.6302459836006165 0.393777996301651 0.6381530165672302 0.6615890264511108
          0.5237020254135132 0.6082770228385925 0.5964360237121582 0.34617599844932556 0.6140810251235962 0.709272027015686
          0.3885369896888733 0.6701220273971558 0.632436990737915 0.13128100335597992 0.6716039776802063 0.72918701171875
          0.28338900208473206 0.7443900108337402 0.6046270132064819 0.013743000105023384 0.6337820291519165 0.773389995098114
          -0.08060300350189209 0.6193060278892517 0.7810019850730896 -0.5279319882392883 0.2623499929904938 0.8077499866485596
          -0.4570389986038208 0.2805039882659912 0.8440579771995544 -0.4553050100803375 0.1987999975681305 0.8678569793701172
          0.7469959855079651 0.19675999879837036 0.6350449919700623 -0.6882799863815308 0.4667789936065674 0.555325984954834
          -0.6799600124359131 0.3524070084095001 0.6430109739303589 -0.7644860148429871 0.2171110063791275 0.6069790124893188
          0.9434260129928589 0.18305599689483643 0.2764759957790375 0.7621229887008667 0.4490399956703186 0.46640199422836304
          -0.7580410242080688 -0.042194999754428864 0.6508409976959229 -0.7951560020446777 -0.08132299780845642 0.6009269952774048
          -0.829712986946106 -0.14508900046348572 0.5390040278434753 -0.8477979898452759 -0.18047800660133362 0.498663991689682
          -0.6051350235939026 0.18785299360752106 0.7736430168151855 -0.680387020111084 0.14932499825954437 0.7174789905548096
          -0.7418869733810425 0.04332699999213219 0.6691229939460754 -0.7204160094261169 -0.1596280038356781 0.674921989440918
          -0.7345219850540161 -0.1738329976797104 0.6559410095214844 0.043820999562740326 0.7049160003662109 0.7079349756240845
          0.056134000420570374 0.7107660174369812 0.7011849880218506 -0.47628000378608704 0.4664280116558075 0.7453870177268982
          0.48930299282073975 0.45655199885368347 0.7430629730224609 -0.49004998803138733 0.56973797082901 0.6597340106964111
          -0.5529500246047974 0.6545370221138 0.5155839920043945 -0.2154030054807663 0.6825839877128601 0.6983410120010376
          -0.3422029912471771 0.7754470109939575 0.5306400060653687 -0.46136200428009033 0.7768099904060364 0.4286159873008728
          -0.10883499681949615 0.7214760184288025 0.6838330030441284 -0.025987999513745308 0.7282940149307251 0.6847710013389587
          -0.09168300032615662 0.6741480231285095 0.7328839898109436 -0.09865400195121765 0.7426620125770569 0.6623600125312805
          -0.10047399997711182 0.6853229999542236 0.7212749719619751 -0.8255980014801025 -0.20030899345874786 0.527508020401001
          -0.8211169838905334 -0.11034200340509415 0.5599930286407471 -0.686564028263092 0.03487800061702728 0.7262319922447205
          -0.5991119742393494 0.1422719955444336 0.7879239916801453 -0.8539010286331177 -0.11508200317621231 0.5075520277023315
          -0.7818909883499146 -0.0685570016503334 0.6196349859237671 -0.8023110032081604 -0.14423100650310516 0.5792189836502075
          -0.25586700439453125 0.45238998532295227 0.8543279767036438 -0.2721270024776459 0.44537100195884705 0.8529899716377258
          -0.06326500326395035 0.563726007938385 0.8235350251197815 -0.396820992231369 0.35569098591804504 0.8461779952049255
          -0.5617250204086304 0.20693199336528778 0.8010269999504089 -0.6384080052375793 -0.05721699818968773 0.7675690054893494
          -0.7684770226478577 -0.2127240002155304 0.6034830212593079 -0.759198009967804 -0.1199600026011467 0.6397089958190918
          -0.6885520219802856 -0.13039599359035492 0.7133669853210449 0.3503049910068512 0.6956779956817627 0.6271510124206543
          0.5699390172958374 0.6976730227470398 0.4340760111808777 -0.20397600531578064 0.49603399634361267 0.8440049886703491
          -0.0698539987206459 0.55730801820755 0.8273620009422302 -0.04535700008273125 0.5534470081329346 0.8316490054130554
          -0.019950000569224358 0.6187390089035034 0.7853429913520813 0.3826879858970642 0.6853070259094238 0.6195999979972839
          0.39274299144744873 0.6964719891548157 0.6005669832229614 0.11228100210428238 0.6350150108337402 0.7642970085144043
          -0.35541799664497375 0.39624500274658203 0.8465629816055298 -0.11150799691677094 0.5381600260734558 0.8354340195655823
          0.5931620001792908 0.6829259991645813 0.4263460040092468 0.6038269996643066 0.6737899780273438 0.425911009311676
          0.5872340202331543 0.6543310284614563 0.4764530062675476 0.7388309836387634 0.5801929831504822 0.34279099106788635
          0.5686860084533691 0.6041759848594666 0.5581830143928528 0.4644779860973358 0.6504380106925964 0.6009910106658936
          0.4123910069465637 0.716027021408081 0.5632399916648865 0.24127499759197235 0.7810779809951782 0.5759369730949402
          0.2867850065231323 0.8026180267333984 0.5230290293693542 0.4148609936237335 0.8071290254592896 0.4200400114059448
          0.3523220121860504 0.832738995552063 0.4271009862422943 0.46016600728034973 0.2658750116825104 0.8470879793167114
          -0.73124098777771 0.15645599365234375 0.6639339923858643 0.9512199759483337 0.08507400006055832 0.29655298590660095
          -0.49113398790359497 0.6129350066184998 0.6189489960670471 -0.7860810160636902 0.3212519884109497 0.5280839800834656
          -0.6271960139274597 0.45561298727989197 0.6316980123519897 -0.8516079783439636 0.14712199568748474 0.5031089782714844
          -0.9139969944953918 0.14514900743961334 0.3788689970970154 -0.8394730091094971 0.33621498942375183 0.4269010126590729
          -0.8061779737472534 -0.19188900291919708 0.5596929788589478 -0.8380150198936462 -0.15325599908828735 0.5236819982528687
          -0.7558259963989258 -0.15194499492645264 0.6368989944458008 -0.7911310195922852 -0.29000601172447205 0.5385239720344543
          -0.7575939893722534 -0.025942999869585037 0.652209997177124 -0.8171979784965515 -0.1088619977235794 0.56598299741745
          -0.6742759943008423 0.012098000384867191 0.7383800148963928 -0.684535026550293 0.00395399983972311 0.7289699912071228
          -0.7842730283737183 -0.43068599700927734 0.4465709924697876 -0.8012149930000305 -0.4188239872455597 0.4273659884929657
          -0.8229600191116333 -0.4022819995880127 0.4011310040950775 0.22357599437236786 0.7993839979171753 0.5576729774475098
          0.20861700177192688 0.8343660235404968 0.510208010673523 0.11421500146389008 0.8433039784431458 0.525160014629364
          0.19713200628757477 0.8006970286369324 0.5657060146331787 -0.6694830060005188 0.5768679976463318 0.4679909944534302
          -0.6656230092048645 0.6860769987106323 0.2936750054359436 -0.5898380279541016 0.7322189807891846 0.3405100107192993
          -0.2110690027475357 0.7897400259971619 0.5759869813919067 -0.2886190116405487 0.8371409773826599 0.46464401483535767
          -0.29203999042510986 0.9134359955787659 0.2834570109844208 -0.31979501247406006 0.8904160261154175 0.323868989944458
          -0.5351709723472595 0.7932620048522949 0.2903920114040375 -0.06499599665403366 0.8173750042915344 0.572426974773407
          -0.02253499999642372 0.8011810183525085 0.5979970097541809 -0.04729200154542923 0.8060370087623596 0.589972972869873
          -0.1818619966506958 0.9000750184059143 0.3959690034389496 -0.8678799867630005 -0.3387799859046936 0.3633350133895874
          -0.8129569888114929 -0.1813890039920807 0.5533519983291626 -0.8311700224876404 -0.18738700449466705 0.5234900116920471
          -0.8824629783630371 -0.20169200003147125 0.42494699358940125 -0.7696250081062317 -0.08653099834918976 0.632606029510498
          -0.6561319828033447 0.08590500056743622 0.7497410178184509 -0.827879011631012 -0.15208199620246887 0.5398960113525391
          -0.903672993183136 -0.24135200679302216 0.3537279963493347 -0.9191250205039978 -0.2383670061826706 0.3136740028858185
          -0.7764340043067932 -0.08554700016975403 0.6243659853935242 -0.3196609914302826 0.41520801186561584 0.8517150282859802
          -0.3094309866428375 0.4395290017127991 0.8432469964027405 -0.2442850023508072 0.47821399569511414 0.8435860276222229
          -0.46633899211883545 0.307345986366272 0.8294979929924011 -0.5791710019111633 0.21112500131130219 0.7873920202255249
          -0.6702960133552551 0.07599999755620956 0.7381920218467712 -0.6205739974975586 0.135002002120018 0.7724390029907227
          -0.7331119775772095 -0.26201900839805603 0.6276090145111084 -0.8204360008239746 -0.21358299255371094 0.5303469896316528
          -0.8144320249557495 -0.32731199264526367 0.4791319966316223 0.5340579748153687 0.7022330164909363 0.47079700231552124
          0.677856981754303 0.6869840025901794 0.26184600591659546 0.754692018032074 0.6381239891052246 0.15244099497795105
          0.7427070140838623 0.6210150122642517 0.250450998544693 -0.08187899738550186 0.5364999771118164 0.8399189710617065
          -0.1934950053691864 0.48408401012420654 0.8533599972724915 0.00025400001322850585 0.5629019737243652 0.826524019241333
          0.60480797290802 0.6932479739189148 0.3919369876384735 0.5887489914894104 0.6924700140953064 0.4169659912586212
          0.3964410126209259 0.6766250133514404 0.62049400806427 0.25560399889945984 0.6341850161552429 0.7297099828720093
          0.13728900253772736 0.6018700003623962 0.7867050170898438 0.6591259837150574 0.6452320218086243 0.3863010108470917
          0.8712980151176453 0.4746060073375702 0.12485700100660324 0.8357890248298645 0.526436984539032 0.15595300495624542
          0.8187909722328186 0.497404009103775 0.286653995513916 0.6604809761047363 0.578561007976532 0.4785729944705963
          0.5357639789581299 0.6968299746513367 0.4768489897251129 0.4382129907608032 0.8112990260124207 0.3869920074939728
          0.3730100095272064 0.8687490224838257 0.3257890045642853 0.40643298625946045 0.8815479874610901 0.2401770055294037
          0.5674290060997009 0.7781299948692322 0.2693279981613159 0.43759000301361084 0.8746629953384399 0.20851700007915497
          -0.8498200178146362 0.040362998843193054 0.5255240201950073 -0.8757839798927307 0.10548099875450134 0.47103801369667053
          -0.7548980116844177 0.45444899797439575 0.47286900877952576 -0.8179309964179993 0.4211280047893524 0.3919689953327179
          -0.9682769775390625 0.046539001166820526 0.24550800025463104 -0.981793999671936 0.04205000028014183 0.18523499369621277
          -0.9029639959335327 0.2095700055360794 0.3751490116119385 -0.7807949781417847 0.46824198961257935 0.4136529862880707
          -0.8279340267181396 0.4734039902687073 0.3006879985332489 -0.8555790185928345 -0.3121129870414734 0.41300201416015625
          -0.811939001083374 -0.4374159872531891 0.38655099272727966 -0.783719003200531 -0.210097998380661 0.5845019817352295
          -0.7744439840316772 -0.5372130274772644 0.33412399888038635 -0.804731011390686 -0.3246990144252777 0.4969690144062042
          -0.76842200756073 -0.05180399864912033 0.6378440260887146 -0.7774410247802734 -0.0401029996573925 0.6276760101318359
          -0.6149539947509766 0.020114999264478683 0.7883070111274719 0.979960024356842 -0.017086999490857124 0.19845899939537048
          0.7544379830360413 -0.0401809997856617 0.6551409959793091 0.752364993095398 -0.07012700289487839 0.6550040245056152
          -0.7957490086555481 -0.028262000530958176 0.6049659848213196 -0.7608420252799988 -0.5972710251808167 0.2537449896335602
          -0.7794070243835449 -0.542739987373352 0.3129830062389374 -0.8379899859428406 -0.49191901087760925 0.23619699478149414
          -0.790120005607605 -0.5818430185317993 0.19279299676418304 -0.8167179822921753 -0.5522630214691162 0.167262002825737
          -0.77851402759552 -0.5800309777259827 0.2397489994764328 0.29117700457572937 0.8525890111923218 0.4339450001716614
          0.7985960245132446 0.5553179979324341 0.2320909947156906 0.4375939965248108 0.8229280114173889 0.36235499382019043
          0.28510698676109314 0.9237629771232605 0.25568899512290955 0.24307900667190552 0.9161580204963684 0.318695992231369
          0.03725700080394745 0.88680100440979 0.46064698696136475 -0.760129988193512 0.5854300260543823 0.28191301226615906
          -0.6899340152740479 0.6983659863471985 0.19046199321746826 -0.6145510077476501 0.7795820236206055 0.12074299901723862
          -0.517782986164093 0.8231629729270935 0.2330320030450821 -0.2831830084323883 0.8927630186080933 0.3504039943218231
          0.5902019739151001 0.7864270210266113 0.18219299614429474 0.7807549834251404 0.6024450063705444 0.16577500104904175
          -0.38900598883628845 0.8880940079689026 0.24487300217151642 -0.04575899988412857 0.9075589776039124 0.4174239933490753
          -0.19630299508571625 0.9504830241203308 0.2409289926290512 -0.2751159965991974 0.9331939816474915 0.23121300339698792
          -0.08208099752664566 0.9622259736061096 0.2595829963684082 -0.9065189957618713 -0.374222993850708 0.1953970044851303
          -0.8693270087242126 -0.485166996717453 0.09425400197505951 -0.8680269718170166 -0.49647200107574463 -0.006672999821603298
          -0.8386840224266052 -0.5401989817619324 0.06923499703407288 -0.6735780239105225 0.023412000387907028 0.7387459874153137
          -0.7024549841880798 -0.015332000330090523 0.711562991142273 -0.8221160173416138 -0.23560799658298492 0.518280029296875
          -0.7879220247268677 -0.16647599637508392 0.5928450226783752 -0.8620780110359192 -0.2525170147418976 0.43938198685646057
          -0.8986250162124634 -0.3533639907836914 0.26001501083374023 -0.9124150276184082 -0.39242300391197205 0.11619900166988373
          -0.16821600496768951 0.5289440155029297 0.8318179845809937 -0.199194997549057 0.48572099208831787 0.8511149883270264
          -0.40716901421546936 0.34833601117134094 0.8443199992179871 -0.11410100013017654 0.5536100268363953 0.8249220252037048
          -0.5341029763221741 0.23725199699401855 0.811447024345398 -0.5416539907455444 0.19366900622844696 0.8179870247840881
          -0.760811984539032 -0.07550299912691116 0.644565999507904 -0.782908022403717 -0.09412600100040436 0.6149759888648987
          -0.6078019738197327 0.10034199804067612 0.7877240180969238 -0.7476059794425964 0.003166999900713563 0.6641349792480469
          -0.7678940296173096 -0.019077999517321587 0.6402930021286011 0.7189549803733826 0.6700270175933838 0.18484799563884735
          0.7935889959335327 0.5939890146255493 0.1318809986114502 0.8305839896202087 0.5565950274467468 -0.018216999247670174
          0.8027650117874146 0.5934370160102844 0.058313999325037 0.853003978729248 0.5047140121459961 0.13284200429916382
          -0.029965000227093697 0.5541170239448547 0.8318989872932434 0.6669700145721436 0.6957030296325684 0.2667370140552521
          0.3198550045490265 0.6717690229415894 0.668146014213562 0.5197679996490479 0.703557014465332 0.48461300134658813
          0.11765199899673462 0.6327769756317139 0.7653440237045288 0.1846420019865036 0.6401020288467407 0.7457730174064636
          0.9573320150375366 0.28156599402427673 0.06507900357246399 0.9890000224113464 0.1451440006494522 0.02849400043487549
          0.8774459958076477 0.45825400948524475 0.14174799621105194 0.8431509733200073 0.5256100296974182 0.11326900124549866
          0.9107829928398132 0.3948740065097809 0.12061700224876404 0.8924490213394165 0.3952069878578186 0.2175939977169037
          0.7832450270652771 0.4897159934043884 0.3830220103263855 0.7859280109405518 0.45333001017570496 0.4204869866371155
          0.7401679754257202 0.5326840281486511 0.4103649854660034 0.6459429860115051 0.678242027759552 0.3503519892692566
          0.33464300632476807 0.9093160033226013 0.24730199575424194 0.8028140068054199 0.5744010210037231 0.15985700488090515
          0.4256590008735657 0.8975920081138611 0.11464499682188034 0.41913899779319763 0.8931220173835754 0.16326600313186646
          0.8117640018463135 0.5497140288352966 0.19711199402809143 0.5660780072212219 0.8032519817352295 0.18531599640846252
          0.46257299184799194 0.8676649928092957 0.1821649968624115 -0.7727680206298828 -0.037032000720500946 0.6336069703102112
          -0.9818040132522583 -0.040088001638650894 0.18561699986457825 -0.9519850015640259 -0.07540100067853928 0.29671400785446167
          -0.9981359839439392 -0.04813100025057793 0.03753000125288963 -0.9969149827957153 -0.06088799983263016 0.04953699931502342
          -0.97148197889328 0.12094900012016296 0.20394499599933624 -0.9965490102767944 -0.0146289998665452 -0.08170799911022186
          -0.9053369760513306 0.2834779918193817 0.3162370026111603 -0.8792629837989807 0.4706850051879883 0.07315299659967422
          -0.9416580200195312 0.30440399050712585 0.1435920000076294 -0.7970190048217773 0.5998150110244751 0.07059399783611298
          -0.7074199914932251 -0.6754689812660217 0.20808200538158417 -0.8622850179672241 -0.22227700054645538 0.4550360143184662
          -0.7174839973449707 -0.6651809811592102 0.20676299929618835 -0.6932299733161926 -0.6867290139198303 0.2187120020389557
          -0.8351860046386719 -0.4541719853878021 0.3101480007171631 -0.768284022808075 -0.6059049963951111 0.20644299685955048
          -0.8332560062408447 -0.30274900794029236 0.4626309871673584 -0.8732060194015503 -0.23579299449920654 0.4265129864215851
          -0.871953010559082 -0.1619729995727539 0.46202099323272705 -0.8005369901657104 -0.06525500118732452 0.5957199931144714
          0.6626780033111572 0.06174900010228157 0.7463539838790894 -0.7568609714508057 -0.6429139971733093 0.11756899952888489
          -0.7845519781112671 -0.6193770170211792 0.029141999781131744 -0.7508620023727417 -0.6588109731674194 0.046629998832941055
          -0.6960939764976501 -0.700747013092041 0.15622900426387787 0.8873289823532104 0.44569501280784607 0.11833599954843521
          0.4814629852771759 0.8611840009689331 0.1629589945077896 0.34215399622917175 0.9248440265655518 0.16611599922180176
          0.37268099188804626 0.8745129704475403 0.3103800117969513 0.27145901322364807 0.8575119972229004 0.43701601028442383
          0.02919900044798851 0.9516080021858215 0.3059230148792267 0.07343800365924835 0.9276819825172424 0.3660779893398285
          -0.2622320055961609 0.9256889820098877 0.27264299988746643 -0.42473798990249634 0.9034370183944702 0.05830400064587593
          -0.46499401330947876 0.8840839862823486 0.0466420017182827 -0.4958229959011078 0.8546770215034485 0.1539050042629242
          -0.756820023059845 0.6533809900283813 0.01780799962580204 -0.7602670192718506 0.6438940167427063 -0.0859920009970665
          -0.6595140099525452 0.748760998249054 0.06632100045681 0.578665018081665 0.781154990196228 0.23440000414848328
          -0.1128849983215332 0.9698789715766907 0.21585099399089813 -0.24662399291992188 0.953311026096344 0.17428399622440338
          -0.16562500596046448 0.9854670166969299 0.037716999650001526 -0.226610004901886 0.9618179798126221 0.1534699946641922
          -0.33955198526382446 0.9173499941825867 0.2077839970588684 -0.8272519707679749 -0.5441309809684753 -0.13991299271583557
          -0.8222429752349854 -0.5641340017318726 -0.07529500126838684 -0.752498984336853 -0.6059550046920776 -0.2580009996891022
          -0.7492370009422302 -0.6437169909477234 -0.15579600632190704 -0.8408269882202148 -0.29736199975013733 0.45231300592422485
          -0.875465989112854 -0.3820289969444275 0.29599401354789734 -0.8695210218429565 -0.3333739936351776 0.36441200971603394
          -0.8432899713516235 -0.18708999454975128 0.5038449764251709 -0.8397909998893738 -0.35694900155067444 0.4090699851512909
          -0.8734279870986938 -0.47865399718284607 0.0895249992609024 -0.045458000153303146 0.5699030160903931 0.8204540014266968
          -0.2393520027399063 0.45448699593544006 0.8579930067062378 -0.1421860009431839 0.5155810117721558 0.8449609875679016
          -0.33969399333000183 0.3926349878311157 0.8546609878540039 -0.5082200169563293 0.2769649922847748 0.8154770135879517
          -0.42288100719451904 0.32787299156188965 0.844789981842041 0.022787999361753464 0.5915449857711792 0.8059499859809875
          -0.12988799810409546 0.5275650024414062 0.8395259976387024 -0.6196460127830505 0.18045899271965027 0.7638540267944336
          -0.5599550008773804 0.24866700172424316 0.7903259992599487 -0.8150269985198975 -0.12116300314664841 0.5666130185127258
          -0.8583289980888367 -0.28014999628067017 0.42986801266670227 -0.7592129707336426 -0.0803460031747818 0.6458640098571777
          -0.8362979888916016 -0.1403300017118454 0.5300130248069763 -0.7454429864883423 -0.017239000648260117 0.6663470268249512
          -0.8113269805908203 -0.13753199577331543 0.5681849718093872 0.7666739821434021 0.6355249881744385 0.0912109985947609
          0.8454899787902832 0.5337849855422974 0.014801999554038048 0.8070899844169617 0.5802620053291321 0.10909099876880646
          0.7927470207214355 0.5942630171775818 0.13565899431705475 0.963699996471405 0.2564069926738739 -0.07441899925470352
          0.8910189867019653 0.44137099385261536 -0.10619600117206573 0.8479580283164978 0.5291540026664734 -0.031018000096082687
          0.8148589730262756 0.5793200135231018 -0.019812999293208122 0.8525019884109497 0.5144280195236206 -0.0927639976143837
          0.9087600111961365 0.4062030017375946 -0.0956759974360466 0.9468730092048645 0.3137910068035126 0.07047200202941895