<?xml version="1.0"?>
<VTKFile type="PolyData" version="0.1" byte_order="LittleEndian" header_type="UInt32" compressor="vtkZLibDataCompressor">
  <PolyData>
    <Piece NumberOfPoints="210" NumberOfVerts="0" NumberOfLines="0" NumberOfStrips="0" NumberOfPolys="390">
      <PointData Normals="Normals">
        <DataArray type="Float32" Name="Normals" NumberOfComponents="3" format="ascii" RangeMin="0.9999993659756277" RangeMax="1.000000675668026">
          0.06020199880003929 0.9980430006980896 -0.016894999891519547 -0.051176998764276505 0.9925429821014404 -0.11063099652528763
          0.05392400175333023 0.993245005607605 0.102742999792099 0.055063001811504364 0.9788039922714233 -0.19726000726222992
          0.4811680018901825 0.7151190042495728 0.5070329904556274 0.9870219826698303 0.15293699502944946 0.048962000757455826
          0.005781000014394522 0.9875839948654175 0.1569869965314865 -0.08980099856853485 0.9938399791717529 -0.06493999809026718
          -0.050248000770807266 0.9909279942512512 -0.12464500218629837 -0.44310900568962097 0.7409819960594177 -0.5045790076255798
          -0.030852999538183212 0.9684839844703674 -0.2471569925546646 -0.04133699834346771 0.4800640046596527 0.8762590289115906
          0.5944700241088867 0.5701900124549866 -0.5669999718666077 0.6715199947357178 0.5649369955062866 -0.47948700189590454
          0.3669719994068146 0.8536170125007629 -0.3696889877319336 0.7334269881248474 -0.331512987613678 0.5934500098228455
          -0.10515700280666351 -0.08200299739837646 0.9910690188407898 0.9865639805793762 -0.14517399668693542 0.07493499666452408
          -0.6320289969444275 0.49470099806785583 0.5964980125427246 -0.8168179988861084 0.572405993938446 -0.07183799892663956
          -0.08795300126075745 0.34929901361465454 -0.9328740239143372 -0.7816020250320435 -0.26830899715423584 -0.5631229877471924
          -0.2007710039615631 -0.3708049952983856 -0.9067490100860596 -0.6991530060768127 -0.32946300506591797 0.6345379948616028
          0.8099570274353027 -0.20112699270248413 -0.5509240031242371 0.6267549991607666 0.07785400003194809 0.7753170132637024
          -0.3034270107746124 -0.05954499915242195 0.9509919881820679 -0.8622329831123352 -0.11325299739837646 0.49368900060653687
          0.8566529750823975 0.28066501021385193 0.4328649938106537 0.9932379722595215 -0.011245000176131725 -0.11555299907922745
          -0.9203680157661438 -0.37571099400520325 0.10846199840307236 -0.643642008304596 -0.27769801020622253 -0.7131680250167847
          -0.015622000209987164 -0.2894519865512848 -0.9570649862289429 0.6533219814300537 -0.3413560092449188 -0.6757559776306152
          -0.9483879804611206 -0.2543010115623474 -0.1894489973783493 0.5103269815444946 0.24518899619579315 0.8242869973182678
          -0.3569889962673187 0.16622799634933472 0.9191989898681641 -0.9099119901657104 -0.020284000784158707 0.41430601477622986
          -0.950518012046814 -0.1722950041294098 -0.25851500034332275 0.7917010188102722 0.255156010389328 0.555072009563446
          0.8947240114212036 -0.018610000610351562 -0.44623199105262756 -0.640982985496521 -0.2192240059375763 -0.7355819940567017
          -0.01681699976325035 -0.1632930040359497 -0.9864339828491211 0.6618949770927429 -0.056366998702287674 -0.7474750280380249
          0.5105419754981995 0.2957809865474701 0.8073790073394775 -0.3440150022506714 0.2896449863910675 0.8931739926338196
          -0.9556120038032532 0.08867800235748291 0.28096699714660645 -0.8801339864730835 -0.09705299884080887 -0.46469900012016296
          -0.4642139971256256 -0.16424599289894104 -0.8703609704971313 0.7260109782218933 0.2649730145931244 0.6345850229263306
          0.9525499939918518 0.21294400095939636 -0.21749399602413177 0.3053790032863617 -0.04083999991416931 -0.95135498046875
          0.8999850153923035 0.11119499802589417 -0.42149999737739563 0.6047390103340149 0.24853000044822693 0.7566530108451843
          -0.16364000737667084 0.3201879858970642 0.9331139922142029 -0.9453279972076416 0.10796099901199341 0.30773401260375977
          -0.8864160180091858 -0.12891100347042084 -0.4445759952068329 -0.5013260245323181 -0.24188800156116486 -0.8307600021362305
          0.3175170123577118 -0.315201997756958 -0.8943319916725159 0.8005260229110718 0.11539799720048904 0.588083028793335
          0.999638020992279 0.02571599930524826 -0.007849999703466892 0.9263409972190857 -0.1178859993815422 -0.35776498913764954
          0.6608970165252686 0.1827310025691986 0.7278910279273987 -0.07200299948453903 0.2823469936847687 0.9566059708595276
          -0.9048519730567932 0.0953570008277893 0.4149090051651001 -0.8952419757843018 -0.16840000450611115 -0.4125329852104187
          -0.5131629705429077 -0.32991498708724976 -0.7923510074615479 0.3035610020160675 -0.3327670097351074 -0.8928139805793762
          0.9665420055389404 -0.2562899887561798 0.010591999627649784 0.8066880106925964 0.02251500077545643 0.5905479788780212
          -0.09330900013446808 0.3278540074825287 0.9401090145111084 -0.89170902967453 0.12749500572681427 0.43428200483322144
          -0.9365990161895752 -0.11956100165843964 -0.3293749988079071 -0.4579809904098511 -0.3120630085468292 -0.8323889970779419
          0.323870986700058 -0.41941699385643005 -0.8480550050735474 0.9707970023155212 -0.16957099735736847 -0.1696999967098236
          0.9463729858398438 -0.10051699727773666 0.3070400059223175 0.723363995552063 0.2581000030040741 0.6404129862785339
          -0.1277250051498413 0.3056719899177551 0.9435309767723083 -0.8183320164680481 0.18905599415302277 0.5427619814872742
          -0.980883002281189 -0.07483900338411331 -0.1796330064535141 -0.5569279789924622 -0.25542300939559937 -0.7903100252151489
          0.42445600032806396 -0.3229449987411499 -0.8458979725837708 0.8331270217895508 -0.30205899477005005 -0.4633139967918396
          0.997376024723053 -0.027289999648928642 -0.06704899668693542 0.9143530130386353 0.19504199922084808 0.3548479974269867
          0.6055539846420288 0.2850320041179657 0.743008017539978 -0.28155601024627686 0.3740209937095642 0.8836479783058167
          -0.7804160118103027 0.23441800475120544 0.5796539783477783 -0.9905290007591248 0.05924199894070625 0.12386199831962585
          -0.7930459976196289 -0.19705699384212494 -0.5764089822769165 0.4344770014286041 -0.27470099925994873 -0.8577700257301331
          0.8851159811019897 -0.212568998336792 -0.4139859974384308 0.99720299243927 -0.07285799831151962 -0.016697000712156296
          0.5909780263900757 0.22853399813175201 0.7736390233039856 -0.2210640013217926 0.3250240087509155 0.9195050001144409
          -0.8744040131568909 0.2250259965658188 0.42986199259757996 -0.9981539845466614 0.04725100100040436 -0.03816099837422371
          -0.8772850036621094 -0.1530269980430603 -0.45492300391197205 0.31143200397491455 -0.2909179925918579 -0.9046419858932495
          0.9603109955787659 -0.096281997859478 -0.261788010597229 0.9073590040206909 -0.18767699599266052 -0.3761340081691742
          0.9117140173912048 0.09413500130176544 0.3998950123786926 0.5466020107269287 0.2118539959192276 0.8101500272750854
          -0.28492099046707153 0.2386389970779419 0.9283699989318848 -0.8488659858703613 0.12183500081300735 0.5143769979476929
          -0.9721440076828003 -0.04042400047183037 -0.23086999356746674 -0.7469769716262817 -0.17334599792957306 -0.6418539881706238
          0.23702700436115265 -0.27701398730278015 -0.9311720132827759 0.9879440069198608 -0.05593600124120712 -0.1443520039319992
          0.9958969950675964 -0.05733799934387207 -0.0700170025229454 0.8398849964141846 0.11807200312614441 0.5297660231590271
          -0.13708600401878357 0.19097000360488892 0.9719759821891785 -0.8244240283966064 0.06435400247573853 0.5623019933700562
          -0.9560620188713074 -0.10696099698543549 -0.27295801043510437 -0.602895975112915 -0.18140900135040283 -0.7769209742546082
          0.3501189947128296 -0.18895800411701202 -0.9174479842185974 0.9983540177345276 0.05298899859189987 -0.02192699909210205
          0.998540997505188 0.045951999723911285 0.02834700047969818 0.8561050295829773 0.14731399714946747 0.49536100029945374
          -0.022041000425815582 0.16930699348449707 0.9853169918060303 -0.7203599810600281 0.07900600135326385 0.6890860199928284
          -0.9678959846496582 -0.09776200354099274 -0.23155799508094788 -0.5659099817276001 -0.13255499303340912 -0.8137410283088684
          0.356810986995697 -0.09856700152158737 -0.928961992263794 0.957144021987915 0.011857000179588795 -0.28936898708343506
          0.9958369731903076 0.09088499844074249 0.0069989999756217 0.9834759831428528 0.10966800153255463 0.14403900504112244
          0.8825380206108093 0.12168300151824951 0.45422500371932983 0.005212999880313873 0.1935340017080307 0.9810799956321716
          -0.6662110090255737 0.11605300009250641 0.7366780042648315 -0.9936320185661316 0.0003650000144261867 0.11267100274562836
          -0.751537024974823 -0.07199399918317795 -0.6557509899139404 0.0569939985871315 -0.04383400082588196 -0.9974120259284973
          0.9498569965362549 0.03929600119590759 -0.31020501255989075 0.9931920170783997 0.0455159991979599 -0.1072319969534874
          0.9962530136108398 0.05021600052714348 0.07041099667549133 0.9653279781341553 0.162323996424675 0.20443299412727356
          0.4927369952201843 0.30347898602485657 0.815542995929718 -0.5758209824562073 0.16045700013637543 0.801675021648407
          -0.8982440233230591 0.09224899858236313 0.42970600724220276 -0.9630209803581238 0.041005998849868774 -0.2662859857082367
          -0.622156023979187 0.04754500091075897 -0.7814480066299438 0.5377069711685181 0.11592400074005127 -0.8351240158081055
          0.9803419709205627 0.1419299989938736 -0.1370609998703003 0.9900590181350708 0.13555000722408295 0.03753000125288963
          0.96247398853302 0.26788800954818726 0.04336199909448624 0.9231230020523071 0.38058799505233765 0.05474099889397621
          0.5185179710388184 0.5810139775276184 0.6273450255393982 -0.35093000531196594 0.3897530138492584 0.8514339923858643
          -0.8298180103302002 0.24123099446296692 0.5031999945640564 -0.9889450073242188 0.13506600260734558 -0.06119000166654587
          -0.9015139937400818 0.14692799746990204 -0.407043993473053 -0.37335100769996643 0.22616299986839294 -0.8996999859809875
          0.7458890080451965 0.3544729948043823 -0.5639129877090454 0.9167190194129944 0.39782699942588806 -0.03688500076532364
          0.8746730089187622 0.4847069978713989 0.0025470000691711903 0.8451439738273621 0.5264679789543152 -0.09253299981355667
          0.5321030020713806 0.5853819847106934 0.6117150187492371 -0.6098309755325317 0.2874540090560913 0.7385640144348145
          -0.8226780295372009 0.04448400065302849 0.5667650103569031 -0.9845409989356995 0.04502100124955177 0.16927100718021393
          -0.9653120040893555 0.020679999142885208 -0.26027899980545044 -0.6615599989891052 0.1527950018644333 -0.7341600060462952
          0.26471298933029175 0.27710801362991333 -0.9236549735069275 0.7880300283432007 0.5817220211029053 -0.20151600241661072
          0.7973939776420593 0.5982270240783691 0.07929100096225739 0.9703519940376282 0.14276200532913208 0.1950249969959259
          0.997759997844696 -0.030268000438809395 0.0596579983830452 0.8292890191078186 -0.04019699990749359 0.5573729872703552
          -0.04648299887776375 0.047377001494169235 0.9977949857711792 -0.7470840215682983 -0.17143699526786804 0.6422420144081116
          -0.840516984462738 -0.45443299412727356 0.2949959933757782 -0.8484600186347961 -0.5270289778709412 -0.04854699969291687
          -0.9495019912719727 -0.3065530061721802 -0.06686600297689438 -0.6594820022583008 -0.29566800594329834 -0.6911320090293884
          -0.022873999550938606 -0.06583499908447266 -0.9975680112838745 0.30889299511909485 0.2519409954547882 -0.9171209931373596
          0.9577760100364685 0.21261300146579742 -0.1935500055551529 0.5980610251426697 -0.8001109957695007 0.04631999880075455
          0.7807279825210571 -0.6245080232620239 0.021290000528097153 0.7186890244483948 -0.4564020037651062 0.5245800018310547
          0.9782840013504028 0.158487007021904 0.13357600569725037 0.8222730159759521 -0.5531870126724243 0.13360700011253357
          0.6907359957695007 -0.6054069995880127 0.3954299986362457 -0.3471350073814392 -0.6657940149307251 0.6604670286178589
          -0.44294100999832153 -0.8964980244636536 0.009670999832451344 -0.300258994102478 -0.9348120093345642 -0.18966199457645416
          -0.2602500021457672 -0.9646530151367188 -0.041418999433517456 -0.48358699679374695 -0.8716819882392883 0.07946199923753738
          -0.6264129877090454 -0.779446005821228 0.00836899969726801 -0.021449999883770943 -0.6334959864616394 -0.7734490036964417
          -0.07423699647188187 -0.3502100110054016 -0.9337249994277954 0.32653000950813293 -0.499222993850708 -0.8025929927825928
          0.6859049797058105 -0.6224049925804138 -0.37702301144599915 -0.08952800184488297 -0.9944249987602234 -0.05571400001645088
          0.12375400215387344 -0.9632650017738342 -0.23833799362182617 -0.21393099427223206 0.957476019859314 0.19358199834823608
          -0.16249500215053558 -0.9530550241470337 -0.2555040121078491 0.02284500002861023 -0.8740230202674866 -0.4853470027446747
          0.28505900502204895 -0.6764460206031799 -0.6790890097618103 0.12455199658870697 -0.7156990170478821 -0.6872130036354065
          0.1666720062494278 -0.8339959979057312 -0.5259960293769836 0.45138099789619446 -0.8625749945640564 -0.22851799428462982
          0.5489770174026489 -0.8334410190582275 -0.06325100362300873 0.3794749975204468 -0.9063249826431274 0.1859389990568161
          0.6002259850502014 -0.7997689843177795 -0.009953999891877174 0.4869309961795807 -0.8654279708862305 -0.11803500354290009
          0.09806899726390839 -0.9951789975166321 0.001243000035174191 -0.09432300180196762 -0.99378502368927 0.059112001210451126
          <InformationKey name="L2_NORM_RANGE" location="vtkDataArray" length="2">
            <Value index="0">
              0.99999936598
            </Value>
            <Value index="1">
              1.0000006757
            </Value>
          </InformationKey>
        </DataArray>
      </PointData>
      <CellData>
      </CellData>
      <Points>
        <DataArray type="Float32" Name="Points" NumberOfComponents="3" format="ascii" RangeMin="0.016326310205406733" RangeMax="0.26488917006175616">
          0.0080960001796484 -0.009368999861180782 0.019109999760985374 0.0009549999958835542 -0.011373000219464302 0.019740000367164612
          0.006182000041007996 -0.008880999870598316 0.025016000494360924 0.004693000111728907 -0.010091000236570835 0.014657000079751015
          0.007914000190794468 -0.00954199954867363 0.026947999373078346 0.010064000263810158 -0.010348999872803688 0.01927199959754944
          -0.00022200000239536166 -0.008743000216782093 0.02759600058197975 -0.0055680000223219395 -0.008949999697506428 0.02649099938571453
          -0.008275999687612057 -0.009839000180363655 0.020980000495910645 -0.007741000037640333 -0.010354000143706799 0.016290999948978424
          -0.0012229999992996454 -0.010719000361859798 0.013292999938130379 -0.0021879998967051506 -0.010099000297486782 0.029951000586152077
          0.006581000052392483 -0.011095000430941582 0.012993000447750092 0.010161999613046646 -0.010449999943375587 0.01925799995660782
          0.007942000404000282 -0.009453999809920788 0.019354000687599182 0.008301000110805035 -0.014279000461101532 0.028010999783873558
          0.0016969999996945262 -0.013975000008940697 0.03010999970138073 0.0037879999727010727 -0.01637599989771843 0.019176000729203224
          -0.007705000229179859 -0.009561000391840935 0.028012000024318695 -0.010816999711096287 -0.010417000390589237 0.02155900001525879
          -0.0020490000024437904 -0.011989000253379345 0.010890999808907509 -0.008882000111043453 -0.01593099907040596 0.016916999593377113
          -0.001673000049777329 -0.01803000085055828 0.011944999918341637 -0.007445000112056732 -0.014069999568164349 0.026525000110268593
          0.007081000134348869 -0.018028000369668007 0.014183999970555305 0.004033000208437443 -0.02169100008904934 0.026969000697135925
          -0.0020830000285059214 -0.02108900062739849 0.027509000152349472 -0.005483999848365784 -0.022412000223994255 0.024531999602913857
          0.006769000086933374 -0.023207999765872955 0.02208700031042099 0.006688000168651342 -0.02260199934244156 0.022165000438690186
          -0.009531999938189983 -0.014587000012397766 0.020548999309539795 -0.003829000052064657 -0.023350000381469727 0.016457999125123024
          0.00006299999949987978 -0.02339000068604946 0.015531999990344048 0.004848000127822161 -0.02283800020813942 0.017347000539302826
          -0.005979000125080347 -0.022167999297380447 0.01929200068116188 0.004532000049948692 -0.030889999121427536 0.028727000579237938
          -0.0012750000460073352 -0.030517999082803726 0.02880699932575226 -0.004466000013053417 -0.030838999897241592 0.025817999616265297
          -0.004908999893814325 -0.03217799961566925 0.020881999284029007 0.007841000333428383 -0.032683998346328735 0.0241519995033741
          0.007511000148952007 -0.03256100043654442 0.024521000683307648 -0.003286000108346343 -0.033034998923540115 0.01844399981200695
          -0.0011810000287368894 -0.03320100158452988 0.017291000112891197 0.00406700000166893 -0.03269499912858009 0.01839599944651127
          0.00471699982881546 -0.036694999784231186 0.030316999182105064 -0.0004980000085197389 -0.036093998700380325 0.030767999589443207
          -0.004767999984323978 -0.03653699904680252 0.02607000060379505 -0.003746999893337488 -0.038322001695632935 0.020340999588370323
          -0.00017800000205170363 -0.03986600041389465 0.017947999760508537 0.009236999787390232 -0.03922099992632866 0.02666199952363968
          0.009216000325977802 -0.03922799974679947 0.026565000414848328 0.004660999868065119 -0.04069099947810173 0.01718199998140335
          0.00914200022816658 -0.03974800184369087 0.02333799935877323 0.0068660001270473 -0.04484599828720093 0.03113899938762188
          0.000691999972332269 -0.043299999088048935 0.03377800062298775 -0.005162000190466642 -0.04516800120472908 0.02889999933540821
          -0.00418600020930171 -0.046466998755931854 0.02294199913740158 -0.0010160000529140234 -0.0476440005004406 0.020096000283956528
          0.004604999907314777 -0.04930799826979637 0.018709000200033188 0.009483999572694302 -0.04593899846076965 0.0280969999730587
          0.009265000000596046 -0.045545000582933426 0.02801400050520897 0.0093560004606843 -0.047974999994039536 0.024677999317646027
          0.006018000189214945 -0.04979600012302399 0.03360699862241745 0.00171999994199723 -0.048792000859975815 0.035475000739097595
          -0.0048340000212192535 -0.04939499869942665 0.03158099949359894 -0.003903999924659729 -0.05197399854660034 0.024491000920534134
          -0.0014600000577047467 -0.05222500115633011 0.022043000906705856 0.004126999992877245 -0.05263400077819824 0.019961999729275703
          0.00955200009047985 -0.05154699832201004 0.028162000700831413 0.005772000178694725 -0.05590999871492386 0.03510500118136406
          0.0012619999470189214 -0.05467800050973892 0.037411998957395554 -0.004637999925762415 -0.055661000311374664 0.03227800130844116
          -0.004658999852836132 -0.057659998536109924 0.027912000194191933 -0.001500000013038516 -0.05817300081253052 0.02450999990105629
          0.005590999964624643 -0.05911700055003166 0.023274000734090805 0.007745999842882156 -0.05703999847173691 0.025645000860095024
          0.004455000162124634 -0.057583998888731 0.029291000217199326 0.005185000132769346 -0.06790699809789658 0.04005200043320656
          0.00033400001120753586 -0.06672000139951706 0.041717998683452606 -0.004230000078678131 -0.06746300309896469 0.03853699937462807
          -0.004712000023573637 -0.06931400299072266 0.03343899920582771 -0.001614999957382679 -0.07191099971532822 0.02886199951171875
          0.0024429999757558107 -0.07189799845218658 0.02871599979698658 0.005923000164330006 -0.07118300348520279 0.03305099904537201
          0.007505999878048897 -0.07056300342082977 0.03615599870681763 0.007519999984651804 -0.0704910010099411 0.03573799878358841
          0.004819000139832497 -0.0808970034122467 0.04512299969792366 -0.0005649999948218465 -0.08128499984741211 0.04578100144863129
          -0.0041149999015033245 -0.08215700089931488 0.042086001485586166 -0.004813000094145536 -0.08192099630832672 0.04119399935007095
          -0.0028069999534636736 -0.08347699791193008 0.034318000078201294 0.00203399988822639 -0.08493199944496155 0.031647998839616776
          0.004085000138729811 -0.08379299938678741 0.036462001502513885 0.006574000231921673 -0.0834909975528717 0.04144600033760071
          0.003913000226020813 -0.09620100259780884 0.05159600079059601 -0.0011109999613836408 -0.09623699635267258 0.05297200009226799
          -0.005458000116050243 -0.09707500040531158 0.04985500127077103 -0.005557000171393156 -0.09750399738550186 0.047958001494407654
          -0.00469100009649992 -0.09917400032281876 0.042458999902009964 0.002176000038161874 -0.10215099900960922 0.036389999091625214
          0.0032130000181496143 -0.09891799837350845 0.04260699823498726 0.005442999769002199 -0.097352996468544 0.04776399955153465
          0.005932999774813652 -0.09755700081586838 0.04767400026321411 0.0026759998872876167 -0.12331099808216095 0.059873998165130615
          -0.0030640000477433205 -0.12321499735116959 0.05883200094103813 -0.007174000144004822 -0.12414000183343887 0.05587400123476982
          -0.007495999801903963 -0.12481199949979782 0.05486200004816055 -0.0024190000258386135 -0.12628400325775146 0.04896700009703636
          0.0018739999504759908 -0.127019003033638 0.045134998857975006 0.0037980000488460064 -0.12532199919223785 0.04932300001382828
          0.004850999917834997 -0.12432999908924103 0.054255999624729156 0.004017999861389399 -0.14749599993228912 0.06525100022554398
          0.0012009999481961131 -0.147366002202034 0.06594199687242508 -0.005863000173121691 -0.14847299456596375 0.06352200359106064
          -0.005791999865323305 -0.14957499504089355 0.0590750016272068 -0.001905999961309135 -0.15071000158786774 0.05381999909877777
          0.00318100000731647 -0.15015099942684174 0.051267001777887344 0.004002999980002642 -0.14868499338626862 0.05508999899029732
          0.00165200000628829 -0.14856499433517456 0.05957600101828575 0.006467999890446663 -0.17410899698734283 0.06871499866247177
          0.003272000001743436 -0.17410600185394287 0.07052099704742432 -0.0022330000065267086 -0.17659500241279602 0.06827499717473984
          -0.003973000217229128 -0.17569799721240997 0.062435001134872437 0.00013499999477062374 -0.17576000094413757 0.05818599835038185
          0.003907000180333853 -0.17540700733661652 0.057156000286340714 0.005667999852448702 -0.1753939986228943 0.060162000358104706
          0.00636899983510375 -0.17446699738502502 0.06343299895524979 0.007658000104129314 -0.17490500211715698 0.062780000269413
          0.0073449998162686825 -0.19181300699710846 0.07067099958658218 0.002652999944984913 -0.19194099307060242 0.07362300157546997
          -0.0013909999979659915 -0.19231300055980682 0.07143300026655197 -0.0033400000538676977 -0.19115500152111053 0.06797599792480469
          0.0011099999537691474 -0.193464994430542 0.060120999813079834 0.004982000216841698 -0.19301000237464905 0.057627998292446136
          0.006901000160723925 -0.1925780028104782 0.060878999531269073 0.007176999934017658 -0.19252799451351166 0.06604299694299698
          0.007814000360667706 -0.19258099794387817 0.06519400328397751 0.008759000338613987 -0.2156369984149933 0.07395900040864944
          0.005371000152081251 -0.21507099270820618 0.07965999841690063 0.0009800000116229057 -0.21459099650382996 0.07676800340414047
          -0.0018370000179857016 -0.21542100608348846 0.07363200187683105 -0.0033889999613165855 -0.21785800158977509 0.06736700236797333
          0.0006939999875612557 -0.21869200468063354 0.06061499938368797 0.006858000066131353 -0.2179120033979416 0.05976400151848793
          0.008697000332176685 -0.21681800484657288 0.06985200196504593 0.009096000343561172 -0.2166839987039566 0.06883600354194641
          0.011617000214755535 -0.2285429984331131 0.06962999701499939 0.010606000199913979 -0.22679199278354645 0.07781799882650375
          0.010200000368058681 -0.2246679961681366 0.08257400244474411 0.0039160000160336494 -0.2247530072927475 0.08186499774456024
          -0.002495999913662672 -0.22740399837493896 0.07582700252532959 -0.0045010000467300415 -0.22892600297927856 0.0697999969124794
          -0.0013510000426322222 -0.2290019989013672 0.06247600167989731 0.0006220000213943422 -0.2283419966697693 0.058733001351356506
          0.009619000367820263 -0.22718900442123413 0.05869000032544136 0.011074000038206577 -0.2279909998178482 0.07042399793863297
          0.01286999974399805 -0.23142600059509277 0.0698700025677681 0.013016999699175358 -0.23152199387550354 0.0773250013589859
          0.013565000146627426 -0.22971899807453156 0.08466699719429016 0.002644000109285116 -0.2317110002040863 0.08579099923372269
          -0.000291000003926456 -0.23244400322437286 0.08113600313663483 -0.005607000086456537 -0.23346400260925293 0.07393400371074677
          -0.004147000145167112 -0.2337689995765686 0.06780499964952469 -0.0013830000534653664 -0.23476800322532654 0.05724500119686127
          0.010866000317037106 -0.2322710007429123 0.05754600092768669 0.013113000430166721 -0.23163500428199768 0.06378699839115143
          0.01256799977272749 -0.23146100342273712 0.07085900008678436 0.017103999853134155 -0.2371550053358078 0.07223399728536606
          0.016574999317526817 -0.23617500066757202 0.07934899628162384 0.015204000286757946 -0.2342739999294281 0.08534900099039078
          0.00609700009226799 -0.23576800525188446 0.08923099935054779 0.0014850000152364373 -0.23802199959754944 0.08298800140619278
          -0.0038240000139921904 -0.24013899266719818 0.07585900276899338 -0.004002999980002642 -0.24018999934196472 0.07067500054836273
          -0.002308000111952424 -0.24031199514865875 0.06130700185894966 -0.001832999987527728 -0.2400140017271042 0.056779999285936356
          0.005938999820500612 -0.23777200281620026 0.0581509992480278 0.013964000158011913 -0.23793600499629974 0.055024001747369766
          0.019693000242114067 -0.23764300346374512 0.06034500151872635 0.013946999795734882 -0.24169999361038208 0.07198800146579742
          0.01810000091791153 -0.24174700677394867 0.0664990022778511 0.013988000340759754 -0.24168699979782104 0.07218299806118011
          0.013975000008940697 -0.24233199656009674 0.07745599746704102 0.012360000051558018 -0.24490800499916077 0.08248499780893326
          0.011300000362098217 -0.24706299602985382 0.08480499684810638 0.00925000011920929 -0.2504099905490875 0.08588100224733353
          0.006000000052154064 -0.2482530027627945 0.08396299928426743 0.003082999959588051 -0.24468199908733368 0.07921399921178818
          0.0008619999862276018 -0.24477499723434448 0.07210999727249146 0.001230000052601099 -0.24403999745845795 0.06368199735879898
          0.0006319999811239541 -0.2456659972667694 0.060437001287937164 0.000742000003810972 -0.24489299952983856 0.0585159994661808
          0.005896999966353178 -0.24025200307369232 0.05853600054979324 0.015130000188946724 -0.24118000268936157 0.054384998977184296
          0.017684999853372574 -0.24097700417041779 0.06161599978804588 0.010707000270485878 -0.24111199378967285 0.07355800271034241
          0.013047999702394009 -0.24162399768829346 0.06725600361824036 0.007681000046432018 -0.24087700247764587 0.06988099962472916
          0.012490999884903431 -0.240339994430542 0.0655440017580986 0.00901000015437603 -0.24298200011253357 0.07865799963474274
          0.007931999862194061 -0.24400800466537476 0.0798799991607666 0.006610000040382147 -0.24507999420166016 0.0804390013217926
          0.005014999769628048 -0.24410699307918549 0.0786610022187233 0.004017999861389399 -0.24340100586414337 0.07585299760103226
          0.003900999901816249 -0.24230000376701355 0.07139600068330765 0.004573000129312277 -0.2423029989004135 0.06684800237417221
          0.005872000008821487 -0.24136799573898315 0.06425400078296661 0.007406999822705984 -0.24082399904727936 0.06327500194311142
          0.008605999872088432 -0.2400909960269928 0.062150999903678894 0.011238000355660915 -0.2400519996881485 0.06251099705696106
          <InformationKey name="L2_NORM_RANGE" location="vtkDataArray" length="2">
            <Value index="0">
              0.016326310205
            </Value>
            <Value index="1">
              0.26488917006
            </Value>
          </InformationKey>
        </DataArray>
      </Points>
      <Verts>
        <DataArray type="Int64" Name="connectivity" format="ascii" RangeMin="1e+299" RangeMax="-1e+299">
        </DataArray>
        <DataArray type="Int64" Name="offsets" format="ascii" RangeMin="1e+299" RangeMax="-1e+299">
        </DataArray>
      </Verts>
      <Lines>
        <DataArray type="Int64" Name="connectivity" format="ascii" RangeMin="1e+299" RangeMax="-1e+299">
        </DataArray>
        <DataArray type="Int64" Name="offsets" format="ascii" RangeMin="1e+299" RangeMax="-1e+299">
        </DataArray>
      </Lines>
      <Strips>
        <DataArray type="Int64" Name="connectivity" format="ascii" RangeMin="1e+299" RangeMax="-1e+299">
        </DataArray>
        <DataArray type="Int64" Name="offsets" format="ascii" RangeMin="1e+299" RangeMax="-1e+299">
        </DataArray>
      </Strips>
      <Polys>
        <DataArray type="Int32" Name="connectivity" format="ascii" RangeMin="0" RangeMax="209">