<?xml version="1.0"?>
<VTKFile type="PolyData" version="0.1" byte_order="LittleEndian" header_type="UInt32" compressor="vtkZLibDataCompressor">
  <PolyData>
    <Piece NumberOfPoints="1914" NumberOfVerts="0" NumberOfLines="0" NumberOfStrips="0" NumberOfPolys="3824">
      <PointData Normals="Normals">
        <DataArray type="Float32" Name="Normals" NumberOfComponents="3" format="ascii" RangeMin="0.9999992813741863" RangeMax="1.0000007438606184">
          -0.6528859734535217 -0.43590399622917175 -0.6194570064544678 -0.6122360229492188 -0.5545629858970642 -0.56358402967453
          -0.7652300000190735 -0.4647429883480072 -0.44546398520469666 -0.7351509928703308 -0.35796400904655457 -0.575685977935791
          -0.43098899722099304 -0.5042889714241028 -0.7482929825782776 -0.5531589984893799 -0.404915988445282 -0.7280510067939758
          -0.8378390073776245 -0.5107420086860657 -0.19279100000858307 -0.2746720016002655 -0.5849350094795227 -0.7631549835205078
          -0.42350199818611145 -0.6500639915466309 -0.6309220194816589 -0.6938179731369019 -0.5999990105628967 -0.39826899766921997
          -0.8571709990501404 -0.41518598794937134 -0.30476000905036926 -0.8497269749641418 -0.4721029996871948 -0.23469799757003784
          -0.662102997303009 -0.28703200817108154 -0.6922659873962402 -0.872534990310669 -0.3394559919834137 -0.35135799646377563
          -0.8003780245780945 -0.28509101271629333 -0.5273690223693848 -0.30157899856567383 -0.5200160145759583 -0.7991459965705872
          -0.3284339904785156 -0.5186669826507568 -0.789376974105835 -0.5840209722518921 -0.3126380145549774 -0.7491170167922974
          -0.35090500116348267 -0.49992498755455017 -0.7917960286140442 -0.8910329937934875 -0.44996699690818787 0.05992000177502632
          -0.8062880039215088 -0.5480890274047852 -0.22248099744319916 -0.8668069839477539 -0.3987399935722351 0.29941999912261963
          -0.8723670244216919 -0.48169800639152527 0.08332200348377228 -0.05021300166845322 -0.697721004486084 -0.7146070003509521
          -0.11107400059700012 -0.6259099841117859 -0.7719449996948242 -0.5842739939689636 -0.698386013507843 -0.41337698698043823
          -0.23618899285793304 -0.7776719927787781 -0.5826150178909302 -0.7305999994277954 -0.6690980195999146 -0.1361290067434311
          -0.7980819940567017 -0.6017100214958191 -0.03179299831390381 -0.9358450174331665 -0.3515999913215637 -0.02390100061893463
          -0.6403470039367676 -0.20029500126838684 -0.7415099740028381 -0.7089200019836426 -0.19815300405025482 -0.6768810153007507
          -0.9114590287208557 -0.26035699248313904 -0.31852200627326965 -0.3217040002346039 -0.4940060079097748 -0.8077530264854431
          -0.24522699415683746 -0.6007450222969055 -0.7609000205993652 -0.39889800548553467 -0.48854899406433105 -0.7760159969329834
          -0.43071600794792175 -0.4810749888420105 -0.7635779976844788 -0.6460809707641602 -0.2877349853515625 -0.7069569826126099
          -0.8856909871101379 -0.3543199896812439 0.30001300573349 -0.7890329957008362 -0.3622339963912964 0.49619901180267334
          -0.8392689824104309 -0.4384180009365082 0.321586012840271 -0.8079059720039368 -0.34937000274658203 0.4745829999446869
          0.2237830013036728 -0.7426220178604126 -0.6312159895896912 0.142085999250412 -0.7882620096206665 -0.5987100005149841
          -0.013240000233054161 -0.841139018535614 -0.5406569838523865 -0.05360899865627289 -0.7808430194854736 -0.622422993183136
          -0.5873799920082092 -0.8010500073432922 -0.11534100025892258 -0.3255949914455414 -0.8578180074691772 -0.39766401052474976
          -0.7951070070266724 -0.5836529731750488 0.1647839993238449 -0.9105470180511475 -0.35078901052474976 0.21875
          -0.7406690120697021 -0.16009099781513214 -0.6525179743766785 -0.696038007736206 -0.22291000187397003 -0.6825259923934937
          -0.8293280005455017 -0.20049400627613068 -0.5215529799461365 -0.9514610171318054 -0.30774301290512085 -0.004157999996095896
          -0.9540939927101135 -0.23869100213050842 -0.18091799318790436 -0.8592640161514282 -0.21740199625492096 -0.4630360007286072
          -0.5406849980354309 -0.603751003742218 -0.585785984992981 -0.32269999384880066 -0.7397770285606384 -0.5904189944267273
          -0.5884619951248169 -0.5620669722557068 -0.5811989903450012 -0.6892529726028442 -0.3603920042514801 -0.6285279989242554
          -0.7509949803352356 -0.1764480024576187 -0.6362959742546082 -0.6738970279693604 -0.23203100264072418 -0.7014439702033997
          -0.799830973148346 -0.42256999015808105 0.4262680113315582 -0.7268279790878296 -0.4190259873867035 0.544185996055603
          -0.7909299731254578 -0.3805510103702545 0.47917699813842773 -0.8516709804534912 -0.3468819856643677 0.3928470015525818
          0.3138589859008789 -0.8580319881439209 -0.4065389931201935 0.7752370238304138 -0.5399860143661499 -0.32775500416755676
          0.9544399976730347 -0.22540999948978424 -0.19553899765014648 0.43845999240875244 -0.7343770265579224 -0.5181159973144531
          0.02471799962222576 -0.9013050198554993 -0.43247801065444946 -0.23893499374389648 -0.9089480042457581 -0.3416469991207123
          0.2354380041360855 -0.8745030164718628 -0.42404401302337646 0.11673100292682648 -0.8838449716567993 -0.45298099517822266
          -0.12508800625801086 -0.8026120066642761 -0.5832390189170837 -0.6620759963989258 -0.736890971660614 0.13655200600624084
          -0.46547698974609375 -0.8765810132026672 -0.12221500277519226 -0.7630299925804138 -0.5488349795341492 0.34141799807548523
          -0.9178540110588074 -0.3009600043296814 0.25878000259399414 -0.7306609749794006 -0.2679769992828369 -0.627951979637146
          -0.7621989846229553 -0.26699700951576233 -0.5897160172462463 -0.7613139748573303 -0.22602200508117676 -0.6077119708061218
          -0.6255720257759094 -0.25009799003601074 -0.7389929890632629 -0.8783900141716003 -0.186148002743721 -0.4402030110359192
          -0.972046971321106 -0.2347860038280487 -0.0006469999789260328 -0.9553380012512207 -0.19511200487613678 -0.22194600105285645
          -0.882423996925354 -0.16544899344444275 -0.4404039978981018 0.6851329803466797 -0.2598400115966797 -0.6804969906806946
          0.7994509935379028 -0.1945510059595108 -0.5683550238609314 -0.6590949892997742 -0.552964985370636 -0.5097290277481079
          -0.5344679951667786 -0.6630229949951172 -0.5241609811782837 -0.3345629870891571 -0.7554609775543213 -0.5633350014686584
          -0.06616000086069107 -0.8415189981460571 -0.5361610054969788 -0.7525129914283752 -0.2381030023097992 -0.6140289902687073
          -0.5143920183181763 -0.3828420042991638 -0.7673550248146057 -0.6041520237922668 -0.18852700293064117 -0.7742459774017334
          -0.721252977848053 -0.18860499560832977 -0.6664990186691284 -0.5993989706039429 -0.5468699932098389 -0.5845119953155518
          -0.72182697057724 -0.21785800158977509 -0.656889021396637 -0.6566429734230042 -0.2197140008211136 -0.7214890122413635
          -0.701196014881134 -0.5162129998207092 0.49178001284599304 -0.5525479912757874 -0.6289600133895874 0.5469009876251221
          -0.5483689904212952 -0.4953019917011261 0.6737710237503052 -0.4989129900932312 -0.4574359953403473 0.736096978187561
          -0.6731569766998291 -0.40228700637817383 0.6205030083656311 -0.4343099892139435 -0.5705010294914246 0.6970679759979248
          -0.42598098516464233 -0.6007909774780273 0.6764540076255798 -0.6928520202636719 -0.4219920039176941 0.5847039818763733
          -0.8103269934654236 -0.3751550018787384 0.4501439929008484 -0.7996429800987244 -0.34064099192619324 0.49450400471687317
          -0.7935659885406494 -0.36512699723243713 0.4867610037326813 -0.8459709882736206 -0.3622570037841797 0.3912830054759979
          -0.9558150172233582 -0.26162800192832947 0.1340479999780655 -0.908187985420227 -0.3170979917049408 0.2732110023498535
          0.024423999711871147 -0.9816399812698364 -0.18917100131511688 0.49808600544929504 -0.7769299745559692 -0.38508400321006775
          0.5918949842453003 -0.7611799836158752 -0.26507699489593506 0.5131239891052246 -0.8570809960365295 -0.04599799960851669
          0.30062898993492126 -0.9531859755516052 -0.03253600001335144 0.8815289735794067 -0.38895800709724426 -0.26761600375175476
          0.496196985244751 -0.7778289914131165 -0.38570699095726013 0.3203220069408417 -0.8119490146636963 -0.48798900842666626
          -0.2632240056991577 -0.9333329796791077 -0.2441370040178299 0.44115298986434937 -0.8462709784507751 -0.29868099093437195
          0.3086189925670624 -0.9014120101928711 -0.3036629855632782 -0.4138360023498535 -0.9095540046691895 0.03809399902820587
          -0.6592329740524292 -0.684112012386322 0.31209298968315125 -0.8958230018615723 -0.23836000263690948 -0.37508100271224976
          0.9881979823112488 -0.04519199952483177 -0.14636600017547607 0.7979400157928467 -0.31367000937461853 -0.5146870017051697
          -0.6596680283546448 -0.25506600737571716 -0.7069510221481323 -0.7623419761657715 -0.2486030012369156 -0.5975210070610046
          -0.8551599979400635 -0.26874300837516785 -0.44325900077819824 -0.5288389921188354 -0.1362069994211197 -0.8377220034599304
          -0.5926910042762756 -0.19336800277233124 -0.7818729877471924 -0.8892599940299988 -0.18053600192070007 -0.4202660024166107
          -0.9450460076332092 -0.19425100088119507 -0.26297199726104736 -0.9842190146446228 -0.16875700652599335 -0.05322999879717827
          -0.9828410148620605 -0.18202300369739532 0.029851999133825302 -0.8353490233421326 -0.25824400782585144 -0.48528701066970825
          -0.426147997379303 -0.5706570148468018 -0.7019609808921814 -0.09889599680900574 -0.765051007270813 -0.6363300085067749
          -0.17764900624752045 -0.6759899854660034 -0.7151769995689392 -0.36882901191711426 -0.6478520035743713 -0.6665229797363281
          0.10350599884986877 -0.8731690049171448 -0.4763000011444092 0.016871999949216843 -0.7777519822120667 -0.6283439993858337
          -0.7022449970245361 -0.18016700446605682 -0.6887609958648682 -0.3547689914703369 -0.2033340036869049 -0.9125760197639465
          -0.29588600993156433 -0.3244229853153229 -0.8984439969062805 -0.6955519914627075 -0.12406499683856964 -0.7076830267906189
          -0.45628800988197327 -0.12221699953079224 -0.8813989758491516 -0.6376010179519653 -0.12983499467372894 -0.7593470215797424
          -0.4781549870967865 -0.7947779893875122 0.373759001493454 -0.3868109881877899 -0.713263988494873 0.5844939947128296
          -0.16796599328517914 -0.8709959983825684 0.46168598532676697 -0.2791379988193512 -0.8076519966125488 0.5194039940834045
          -0.41807299852371216 -0.7435539960861206 0.5218650102615356 -0.443244993686676 -0.36438798904418945 0.818996012210846
          -0.18725700676441193 -0.44690099358558655 0.8747649788856506 -0.2301580011844635 -0.3874259889125824 0.8927080035209656
          -0.28255000710487366 -0.5364270210266113 0.7952430248260498 -0.7211980223655701 -0.37314799427986145 0.5836390256881714
          -0.416390985250473 -0.3470720052719116 0.8403329849243164 -0.556439995765686 -0.3986789882183075 0.7289919853210449
          -0.1732569932937622 -0.7426869869232178 0.64683598279953 -0.22720900177955627 -0.7470499873161316 0.6247339844703674
          -0.07874000072479248 -0.6890419721603394 0.7204319834709167 -0.7480549812316895 -0.31121399998664856 0.586139976978302
          0.7563909888267517 -0.33233699202537537 0.5634049773216248 -0.03209000080823898 -0.5436469912528992 0.838699996471405
          -0.7832120060920715 -0.32803499698638916 0.52817702293396 -0.8127859830856323 -0.3483150005340576 0.4669640064239502
          -0.7822020053863525 -0.26564300060272217 0.5635539889335632 -0.673222005367279 -0.28553301095962524 0.6820870041847229
          -0.8197910189628601 -0.3390139937400818 0.4615330100059509 -0.9533209800720215 -0.19641199707984924 0.22935199737548828
          -0.8936690092086792 -0.287678986787796 0.3443779945373535 -0.05814899876713753 -0.9915500283241272 0.11596599966287613
          0.7084699869155884 -0.6579319834709167 -0.2553350031375885 0.7483019828796387 -0.6588910222053528 -0.07685700058937073
          0.3035399913787842 -0.9047290086746216 0.298880010843277 0.49338299036026 -0.85732501745224 0.1468529999256134
          0.6585350036621094 -0.7385579943656921 0.14444300532341003 0.1274999976158142 -0.9627220034599304 0.2385600060224533
          0.6988490223884583 -0.6994010210037231 -0.1498270034790039 0.5739179849624634 -0.8135030269622803 -0.09397900104522705
          0.42866799235343933 -0.8175849914550781 -0.3844450116157532 0.44628798961639404 -0.8503010272979736 -0.2789520025253296
          0.26759499311447144 -0.7816910147666931 -0.5633400082588196 0.5098329782485962 -0.8600749969482422 -0.018494000658392906
          -0.9501619935035706 -0.27528899908065796 -0.14631299674510956 -0.6314229965209961 -0.2532239854335785 -0.7329279780387878
          -0.5634809732437134 -0.2185799926519394 -0.796688973903656 -0.8392590284347534 -0.2909660041332245 -0.4593290090560913
          -0.4353390038013458 -0.11083800345659256 -0.89341801404953 -0.43298301100730896 -0.01825599931180477 -0.901216983795166
          -0.24405699968338013 0.057760998606681824 -0.9680389761924744 -0.9812719821929932 -0.15602099895477295 0.11297599971294403
          -0.9695720076560974 -0.21587499976158142 0.115447998046875 -0.1973710060119629 -0.5103030204772949 -0.8370400071144104
          0.03914399817585945 -0.6120650172233582 -0.7898380160331726 -0.01308900024741888 -0.45405900478363037 -0.8908759951591492
          0.15906399488449097 -0.7281870245933533 -0.6666640043258667 -0.047161001712083817 -0.17452499270439148 -0.9835230112075806
          -0.21144700050354004 -0.1124349981546402 -0.9709010124206543 -0.08151499927043915 -0.30798301100730896 -0.9478930234909058
          -0.1224220022559166 -0.10739599913358688 -0.9866499900817871 -0.39743301272392273 -0.0849749967455864 -0.9136890172958374
          -0.5277889966964722 -0.07034800201654434 -0.8464570045471191 -0.21775199472904205 -0.8960679769515991 0.3868420124053955
          -0.07437600195407867 -0.8757950067520142 0.4769189953804016 -0.014898000285029411 -0.8753160238265991 0.48332199454307556
          0.12869299948215485 -0.9065030217170715 0.40210801362991333 -0.05864899978041649 -0.8715090155601501 0.4868600070476532
          -0.175245001912117 -0.2843509912490845 0.9425680041313171 0.1184689998626709 -0.3016600012779236 0.9460269808769226
          0.12694300711154938 -0.45406800508499146 0.8818780183792114 0.010661999695003033 -0.5366770029067993 0.843720018863678
          -0.6354619860649109 -0.35059699416160583 0.6879469752311707 -0.28888601064682007 -0.24658100306987762 0.9250640273094177
          -0.1535540074110031 -0.2057429999113083 0.966484010219574 0.0811539962887764 -0.8545979857444763 0.5129110217094421
          0.13640999794006348 -0.8079910278320312 0.5731859803199768 0.2743529975414276 -0.6903759837150574 0.6694120168685913
          0.7612699866294861 -0.3194119930267334 0.5643079876899719 -0.735450029373169 -0.2909319996833801 0.6119409799575806
          -0.7042959928512573 -0.27299800515174866 0.6553159952163696 -0.8067370057106018 -0.23549699783325195 0.5419560074806213
          -0.7394649982452393 -0.10099700093269348 0.6655759811401367 -0.6918839812278748 -0.10893700271844864 0.7137429714202881
          -0.8142619729042053 -0.24498000741004944 0.5262719988822937 -0.8694649934768677 -0.15168200433254242 0.4701310098171234
          -0.8876609802246094 -0.11744999885559082 0.44526800513267517 -0.9454169869422913 -0.17771799862384796 0.2731359899044037
          0.8843799829483032 -0.4581660032272339 -0.08919999748468399 0.8874319791793823 -0.45171400904655457 0.09175900369882584
          0.7864099740982056 -0.5904809832572937 0.18136100471019745 0.2862040102481842 -0.8901510238647461 0.3545669913291931
          0.5197129845619202 -0.798412024974823 0.3040339946746826 0.7575740218162537 -0.5448799729347229 0.3594279885292053
          0.7688919901847839 -0.6385999917984009 -0.031530000269412994 0.665332019329071 -0.5599759817123413 -0.49371999502182007
          0.4605419933795929 -0.6460220217704773 -0.6087340116500854 0.6580100059509277 -0.7358559966087341 -0.1598059982061386
          0.4638899862766266 -0.8795070052146912 -0.10617800056934357 0.2776789963245392 -0.5376009941101074 -0.7961660027503967
          0.3480989933013916 -0.5402629971504211 -0.7661219835281372 0.5316159725189209 -0.8327850103378296 0.15444600582122803
          0.6610879898071289 -0.6874189972877502 0.30069500207901 -0.9026020169258118 -0.290353000164032 -0.3178130090236664
          -0.9576810002326965 -0.2820209860801697 -0.05755100026726723 -0.9058169722557068 -0.2652040123939514 -0.33039700984954834
          -0.935696005821228 -0.28394898772239685 0.2093929946422577 -0.949832022190094 -0.2997100055217743 0.08940300345420837
          -0.80274498462677 -0.26836299896240234 -0.5325239896774292 -0.7547479867935181 -0.26692500710487366 -0.5992550253868103
          -0.6357489824295044 -0.24761100113391876 -0.7311030030250549 -0.47123900055885315 -0.1705169975757599 -0.8653659820556641
          -0.4218670129776001 -0.17865300178527832 -0.8888819813728333 -0.4762510061264038 -0.20890800654888153 -0.8541319966316223
          -0.19233499467372894 -0.0452210009098053 -0.9802870154380798 -0.4078660011291504 0.00904299970716238 -0.9129970073699951
          -0.165024995803833 0.05783199891448021 -0.9845920205116272 0.0639830008149147 0.14405299723148346 -0.9874989986419678
          0.09432800114154816 0.10383900254964828 -0.9901109933853149 -0.8645889759063721 -0.20536699891090393 0.45859500765800476
          0.19723300635814667 -0.5302749872207642 -0.8245649933815002 0.1638530045747757 -0.3556709885597229 -0.9201359748840332
          0.07344599813222885 -0.23900499939918518 -0.9682369828224182 0.29383501410484314 -0.07393400371074677 -0.9529929757118225
          0.1846189945936203 -0.07325100153684616 -0.9800770282745361 -0.025608999654650688 0.022985000163316727 -0.9994080066680908
          0.221002995967865 0.012326999567449093 -0.9751949906349182 -0.2593050003051758 -0.11435999721288681 -0.9590010046958923
          -0.208514004945755 -0.002171000000089407 -0.9780169725418091 0.312730997800827 -0.8654189705848694 0.3914709985256195
          0.04743000119924545 -0.13920800387859344 0.989126980304718 0.4827679991722107 -0.24391500651836395 0.841094970703125
          0.3083829879760742 -0.14421899616718292 0.940267026424408 0.40377700328826904 -0.39061999320983887 0.8272719979286194
          0.4139319956302643 -0.5011299848556519 0.7599539756774902 -0.5434569716453552 -0.2079090029001236 0.8132820129394531
          0.04088300094008446 -0.05837099999189377 0.9974579811096191 -0.16848400235176086 -0.05211900174617767 0.9843260049819946
          0.3518590033054352 -0.7730820178985596 0.5277680158615112 0.5918890237808228 -0.5884280204772949 0.5508360266685486
          -0.6936529874801636 -0.09020999819040298 0.7146379947662354 -0.7006130218505859 -0.04646499827504158 0.7120270133018494
          -0.8007630109786987 -0.11315800249576569 0.5881959795951843 -0.5508859753608704 0.09756100177764893 0.8288589715957642
          -0.6094859838485718 0.07255399972200394 0.7894700169563293 -0.6228119730949402 0.11109700053930283 0.7744429707527161
          -0.5510219931602478 0.0663670003414154 0.8318480253219604 -0.7315220236778259 0.016049999743700027 0.6816290020942688
          -0.8310189843177795 -0.10100100189447403 0.5469980239868164 0.9271990060806274 -0.3717130124568939 -0.04615499824285507
          0.9944339990615845 -0.10485699772834778 -0.010297000408172607 0.988448977470398 -0.15154699981212616 -0.0011810000287368894
          0.9574540257453918 -0.26627498865127563 0.11125899851322174 0.9001910090446472 -0.36408400535583496 0.23895399272441864
          0.8378660082817078 -0.48101699352264404 0.258076012134552 0.5576199889183044 -0.7026659846305847 0.4419510066509247
          0.7156530022621155 -0.4033069908618927 0.5702499747276306 0.835811972618103 -0.3759010136127472 0.4001469910144806
          0.8548200130462646 -0.4935320019721985 0.1603419929742813 0.9069600105285645 -0.42117899656295776 0.005609000101685524
          0.771435022354126 -0.442546010017395 -0.4572109878063202 0.7443550229072571 -0.6107680201530457 -0.2699970006942749
          0.5736079812049866 -0.3965680003166199 -0.7167350053787231 0.6883500218391418 -0.33345699310302734 -0.6441900134086609
          0.6699830293655396 -0.2681429982185364 -0.6922590136528015 0.6727089881896973 -0.7052199840545654 0.2238900065422058
          0.5887370109558105 -0.8007349967956543 0.11051099747419357 0.7857630252838135 -0.5956569910049438 0.1666409969329834
          0.3479659855365753 -0.2745159864425659 -0.8964149951934814 0.4152350127696991 -0.36715999245643616 -0.8323299884796143
          0.6738659739494324 -0.5652790069580078 0.4757770001888275 0.6642100214958191 -0.5573639869689941 0.4981670081615448
          0.7705950140953064 -0.5289199948310852 0.35556501150131226 -0.9370759725570679 -0.2652060091495514 -0.22705699503421783
          -0.9505689740180969 -0.2568959891796112 0.1744229942560196 -0.9660069942474365 -0.2555049955844879 -0.039329998195171356
          -0.8751959800720215 -0.26382899284362793 -0.4054949879646301 -0.7289720177650452 -0.24438099563121796 -0.6394360065460205
          -0.826291024684906 -0.2748830020427704 0.4916119873523712 -0.9160460233688354 -0.2772569954395294 0.2898080050945282
          -0.5461549758911133 -0.17397500574588776 -0.8194190263748169 -0.2936440110206604 -0.09000600129365921 -0.9516680240631104
          -0.34084299206733704 -0.14406399428844452 -0.9290170073509216 -0.4086819887161255 -0.12012500315904617 -0.9047369956970215
          -0.3304069936275482 -0.0870869979262352 -0.9398120045661926 -0.06226300075650215 -0.008828000165522099 -0.9980210065841675
          -0.14094999432563782 0.033574000000953674 -0.9894469976425171 -0.01975400000810623 0.011334000155329704 -0.9997410178184509
          0.11839599907398224 0.09173499792814255 -0.9887199997901917 -0.16078199446201324 -0.05184800177812576 -0.9856269955635071
          0.16077500581741333 0.08618500083684921 -0.9832209944725037 0.19098399579524994 0.10962899774312973 -0.9754520058631897
          0.2548939883708954 0.14827300608158112 -0.9555330276489258 0.3076300024986267 0.17951999604701996 -0.9344180226325989
          0.22361400723457336 0.14641499519348145 -0.9636179804801941 0.36020299792289734 0.16367599368095398 -0.9184030294418335
          -0.6740909814834595 -0.031578000634908676 0.7379729747772217 -0.6199679970741272 -0.12307500094175339 0.774914026260376
          0.5452640056610107 -0.14965200424194336 -0.8247979879379272 0.409496009349823 0.04976600036025047 -0.9109529852867126
          0.5042160153388977 -0.03901999816298485 -0.8626959919929504 0.42558300495147705 0.08378399908542633 -0.9010319709777832
          0.38214901089668274 0.07576499879360199 -0.9209889769554138 0.34172898530960083 -0.024894999340176582 0.9394689798355103
          0.20138399302959442 0.010847000405192375 0.9794520139694214 0.6097909808158875 -0.1003429964184761 0.7861850261688232
          0.6417909860610962 -0.2970210015773773 0.7070249915122986 -0.48010799288749695 0.05319499969482422 0.875594973564148
          0.1275629997253418 0.06523200124502182 0.9896829724311829 0.255636990070343 0.1466200053691864 0.955590009689331
          -0.15593500435352325 0.15092000365257263 0.976170003414154 0.10402300208806992 0.10330300033092499 0.9891960024833679
          -0.45704999566078186 0.15044300258159637 0.8766260147094727 -0.48639199137687683 0.22526399791240692 0.844202995300293
          -0.3407280147075653 0.33431801199913025 0.8787130117416382 -0.3494180142879486 0.238086998462677 0.9062129855155945
          -0.4337550103664398 0.30351901054382324 0.8483710289001465 -0.33526599407196045 0.28244900703430176 0.8987879753112793
          -0.5630170106887817 0.04127199947834015 0.8254140019416809 0.9800919890403748 -0.1973090022802353 0.02211100049316883
          0.9408919811248779 -0.3055950105190277 0.1460620015859604 0.9389650225639343 -0.23183399438858032 0.25416100025177
          0.7626039981842041 -0.3303529918193817 0.5561490058898926 0.8963829874992371 -0.19429300725460052 0.3984310030937195
          0.7806439995765686 -0.2175540030002594 0.5858889818191528 0.9023609757423401 -0.4163149893283844 0.11147300153970718
          0.7967380285263062 -0.49939000606536865 0.34032198786735535 0.8718839883804321 -0.4837320148944855 -0.0763000026345253
          0.7734190225601196 -0.30503299832344055 -0.5556769967079163 0.9044780135154724 -0.39632999897003174 -0.15761299431324005
          0.6114569902420044 -0.2426770031452179 -0.7531449794769287 0.5831609964370728 -0.18611299991607666 -0.7907500267028809
          0.7030739784240723 -0.5602189898490906 0.4379970133304596 0.8172529935836792 -0.548367977142334 0.17717500030994415
          0.679606020450592 -0.4101729989051819 0.6081889867782593 -0.9461380243301392 -0.24239900708198547 -0.21462999284267426
          -0.8701789975166321 -0.24369500577449799 -0.4282529950141907 -0.9084619879722595 -0.248199000954628 -0.3362959921360016
          -0.9415379762649536 -0.23478199541568756 0.24162499606609344 -0.8889769911766052 -0.253383994102478 0.38146498799324036
          -0.8275099992752075 -0.2831279933452606 0.4848349988460541 -0.9680749773979187 -0.23887400329113007 0.07596000283956528
          -0.9628900289535522 -0.242684006690979 -0.11809500306844711 -0.791920006275177 -0.22321400046348572 -0.5683649778366089
          -0.5760629773139954 -0.18835799396038055 -0.7954069972038269 -0.6373149752616882 -0.185262992978096 -0.7480019927024841
          -0.6840999722480774 -0.24459099769592285 0.6871560215950012 -0.7736030220985413 -0.2860180139541626 0.5654489994049072
          -0.3970029950141907 -0.09866700321435928 -0.9124990105628967 -0.5165020227432251 -0.13512100279331207 -0.8455579876899719
          -0.26964500546455383 -0.046897001564502716 -0.9618170261383057 -0.27611100673675537 -0.043522000312805176 -0.9601399898529053
          0.13293899595737457 0.10192199796438217 -0.9858700037002563 -0.08460099995136261 -0.023569000884890556 -0.9961360096931458
          0.06812100112438202 0.03792800009250641 -0.9969559907913208 0.28623801469802856 0.05466800183057785 -0.9565979838371277
          0.5612469911575317 0.11902900040149689 -0.8190450072288513 -0.1311579942703247 -0.010840999893844128 -0.9913020133972168
          0.3801180124282837 0.12038800120353699 -0.9170699715614319 0.48507699370384216 0.17378999292850494 -0.8570280075073242
          0.5092049837112427 0.20059800148010254 -0.8369410037994385 0.5735499858856201 0.1583089977502823 -0.8037279844284058
          -0.5514259934425354 -0.09232299774885178 0.8290989995002747 -0.29001298546791077 0.06452099978923798 0.9548450112342834
          -0.520501971244812 -0.14071600139141083 0.8421859741210938 -0.43029001355171204 0.061337001621723175 0.9006040096282959
          0.5345730185508728 0.06647100299596786 -0.8425040245056152 0.43210700154304504 0.12762799859046936 -0.8927450180053711
          0.4868110120296478 -0.052967000752687454 -0.8719000220298767 0.39069199562072754 0.06699500232934952 -0.9180799722671509
          0.6333100199699402 0.04782800003886223 0.7724189758300781 0.46851399540901184 0.12642300128936768 0.8743640184402466
          0.8305960297584534 -0.024646999314427376 0.5563300251960754 -0.272148996591568 0.24563099443912506 0.9303770065307617
          0.27681899070739746 0.27042800188064575 0.9220849871635437 0.40491101145744324 0.34118199348449707 0.84831702709198
          0.4838719964027405 0.24042700231075287 0.8414649963378906 0.14835399389266968 0.25454801321029663 0.9556130170822144
          -0.0830250009894371 0.2625100016593933 0.9613509774208069 -0.10580000281333923 0.3054409921169281 0.9463149905204773
          -0.2500019967556 0.4346109926700592 0.8652240037918091 0.03340199962258339 0.500307023525238 0.8652039766311646
          -0.18024399876594543 0.42488500475883484 0.8871219754219055 -0.07396099716424942 0.5115240216255188 0.8560799956321716
          -0.019780000671744347 0.36735999584198 0.9298679828643799 0.9435629844665527 -0.19293899834156036 0.2691909968852997
          0.8573660254478455 -0.34871000051498413 0.37858301401138306 0.9649869799613953 -0.06343600153923035 0.25450998544692993
          0.9513109922409058 -0.061188001185655594 0.30209699273109436 0.8813009858131409 -0.26029500365257263 -0.3944059908390045
          0.9486680030822754 -0.10270500183105469 -0.2991339862346649 0.6599879860877991 -0.23390799760818481 -0.7139350175857544
          0.8271480202674866 -0.17702600359916687 -0.533374011516571 0.9444850087165833 -0.322517991065979 0.06268700212240219
          0.8453410267829895 -0.446725994348526 0.2929759919643402 0.9616230130195618 -0.20700299739837646 -0.18008700013160706
          0.8342580199241638 -0.5314580202102661 0.14685200154781342 0.4713189899921417 -0.05604900047183037 -0.8801800012588501
          0.7366390228271484 -0.5746840238571167 0.35651400685310364 0.7316619753837585 -0.3956559896469116 0.5550919771194458
          0.6571599841117859 -0.3097720146179199 0.68715500831604 0.6611019968986511 -0.2205059975385666 0.717162013053894
          -0.9271669983863831 -0.24031199514865875 -0.28742098808288574 -0.8778349757194519 -0.2290560007095337 -0.4206410050392151
          -0.862089991569519 -0.24753500521183014 0.4421840012073517 -0.9580399990081787 -0.22698499262332916 0.17503400146961212
          -0.9318659901618958 -0.24094299972057343 0.2712419927120209 -0.7358490228652954 -0.29683899879455566 0.6086159944534302
          -0.7211589813232422 -0.28820300102233887 0.6299750208854675 -0.9676610231399536 -0.24457499384880066 0.06177400052547455