<?xml version="1.0"?>
<VTKFile type="PolyData" version="0.1" byte_order="LittleEndian" header_type="UInt32" compressor="vtkZLibDataCompressor">
  <PolyData>
    <Piece NumberOfPoints="2542" NumberOfVerts="0" NumberOfLines="0" NumberOfStrips="0" NumberOfPolys="5080">
      <PointData Normals="Normals">
        <DataArray type="Float32" Name="Normals" NumberOfComponents="3" format="ascii" RangeMin="0.9999992697109674" RangeMax="1.0000007632929144">
          -0.8739140033721924 0.4194760024547577 0.2455890029668808 -0.922448992729187 0.3424459993839264 0.1783750057220459
          -0.9136459827423096 0.4063110053539276 0.012764000333845615 -0.8419229984283447 0.5312420129776001 0.09458699822425842
          -0.8824989795684814 0.40815499424934387 0.23367799818515778 -0.8739680051803589 0.47567200660705566 0.09958600252866745
          -0.8156639933586121 0.4721820056438446 0.33427000045776367 -0.8650590181350708 0.49497300386428833 0.08169600367546082
          -0.8411099910736084 0.5212900042533875 -0.1441890001296997 -0.902209997177124 0.3804140090942383 -0.20323200523853302
          -0.9072610139846802 0.4203929901123047 0.012118999846279621 -0.8562610149383545 0.5138189792633057 0.05299000069499016
          -0.8682870268821716 0.30458199977874756 -0.39154499769210815 -0.9128850102424622 0.3499169945716858 -0.21023499965667725
          -0.944877028465271 0.3158020079135895 -0.08646400272846222 -0.824101984500885 0.5263029932975769 0.209430992603302
          -0.8562210202217102 0.5162839889526367 -0.018369000405073166 -0.8836190104484558 0.45618200302124023 0.10543199628591537
          -0.831479012966156 0.5050140023231506 -0.23152600228786469 -0.8543260097503662 0.4956910014152527 -0.15626400709152222
          -0.8833079934120178 0.4546160101890564 -0.1144149973988533 -0.8564760088920593 0.4993770122528076 0.13065600395202637
          -0.8273040056228638 0.5525559782981873 -0.1012440025806427 -0.798596978187561 0.48300400376319885 -0.3590970039367676
          -0.8193870186805725 0.538532018661499 0.1964389979839325 -0.8909509778022766 0.3854199945926666 0.24011999368667603
          -0.804032027721405 0.5939440131187439 0.027612000703811646 -0.7805320024490356 0.3913309872150421 -0.4874719977378845
          -0.7028260231018066 0.4470990002155304 -0.5532969832420349 -0.7004330158233643 0.2757030129432678 -0.6583170294761658
          -0.8547459840774536 0.400287002325058 -0.3304240107536316 -0.9210439920425415 0.2208079993724823 -0.32081499695777893
          -0.831017017364502 0.24847200512886047 -0.49766701459884644 -0.6844990253448486 0.19715799391269684 -0.7018470168113708
          -0.987483024597168 0.13133199512958527 -0.08734899759292603 -0.9452599883079529 0.04003699868917465 -0.323852002620697
          -0.8654450178146362 0.4945000112056732 -0.08046399801969528 -0.8468570113182068 0.5082550048828125 0.15655800700187683
          -0.8061820268630981 0.4126729965209961 -0.4239949882030487 -0.9457169771194458 0.32272300124168396 0.03833800181746483
          -0.8030850291252136 0.3879390060901642 -0.45228099822998047 -0.8652549982070923 0.46654900908470154 -0.1834850013256073
          -0.8116980195045471 0.5635430216789246 -0.15351000428199768 -0.7442070245742798 0.5645430088043213 -0.356997013092041
          -0.7571529746055603 0.44408899545669556 -0.4790650010108948 -0.9002490043640137 0.43434399366378784 0.02995399944484234
          -0.8627489805221558 0.49457600712776184 0.10516200214624405 -0.7092159986495972 0.7044360041618347 0.027966000139713287
          -0.7041670083999634 0.7004939913749695 -0.11601000279188156 -0.8764749765396118 0.38835498690605164 -0.28455600142478943
          -0.9192479848861694 0.35995200276374817 -0.1594270020723343 -0.7074999809265137 0.5411229729652405 -0.45456600189208984
          -0.6555320024490356 0.33326199650764465 -0.6776540279388428 -0.5867599844932556 0.43354299664497375 -0.6839240193367004
          -0.6306759715080261 0.5640130043029785 -0.5330460071563721 -0.5015559792518616 0.19004499912261963 -0.8439930081367493
          -0.49207600951194763 0.18942800164222717 -0.8496930003166199 -0.43438899517059326 0.2777880132198334 -0.8568199872970581
          -0.6495440006256104 0.34799298644065857 -0.6760129928588867 -0.8530099987983704 0.050241999328136444 -0.5194709897041321
          -0.7777460217475891 0.19178499281406403 -0.5986059904098511 -0.6956509947776794 -0.012500000186264515 -0.718271017074585
          -0.4679340124130249 0.01406800001859665 -0.8836519718170166 -0.9797000288963318 0.08382400125265121 -0.18210400640964508
          -0.9387500286102295 -0.07882799953222275 -0.33546099066734314 -0.7712370157241821 -0.10295899957418442 -0.6281669735908508
          -0.7464039921760559 0.386476993560791 -0.5417720079421997 -0.7640129923820496 0.559686005115509 -0.32099199295043945
          -0.8487280011177063 0.5153660178184509 -0.1185699999332428 -0.902908980846405 0.42358601093292236 -0.07300399988889694
          -0.939844012260437 0.28652098774909973 -0.18601100146770477 -0.8027060031890869 0.4395639896392822 -0.40304699540138245
          -0.7077640295028687 0.5052469968795776 -0.4937570095062256 -0.6338189840316772 0.6908249855041504 -0.34790000319480896
          -0.9143450260162354 0.3823849856853485 -0.1332480013370514 -0.825639009475708 0.48619601130485535 -0.28624001145362854
          -0.6538450121879578 0.7466570138931274 0.12243600189685822 -0.7517529726028442 0.6589260101318359 -0.026162000373005867
          -0.8279439806938171 0.5080999732017517 -0.23736800253391266 -0.6168079972267151 0.764385998249054 -0.18777799606323242
          -0.5417490005493164 0.8352659940719604 -0.09402099996805191 -0.7271569967269897 0.46887698769569397 -0.5013949871063232
          -0.6518949866294861 0.4677470028400421 -0.5968639850616455 -0.48646000027656555 0.365462988615036 -0.793595016002655
          -0.5446509718894958 0.42482200264930725 -0.7231050133705139 -0.6196500062942505 0.5633209943771362 -0.5465379953384399
          -0.4635170102119446 0.5734189748764038 -0.6755319833755493 -0.4112190008163452 0.4243200123310089 -0.8067539930343628
          -0.31426098942756653 0.13915100693702698 -0.9390829801559448 -0.11491400003433228 0.3060370087623596 -0.9450590014457703
          -0.3399139940738678 0.3736569881439209 -0.8630399703979492 -0.5490249991416931 0.4859839975833893 -0.6799939870834351
          -0.24698799848556519 0.24797900021076202 -0.9367510080337524 -0.28175199031829834 0.016465000808238983 -0.9593459963798523
          -0.4920859932899475 -0.02204900048673153 -0.8702669739723206 -0.9332240223884583 0.028728000819683075 -0.35814499855041504
          -0.883446991443634 -0.11273100227117538 -0.45476698875427246 -0.5705459713935852 -0.0692100003361702 -0.818343997001648
          -0.808692991733551 -0.17242200672626495 -0.5623930096626282 -0.8270769715309143 -0.19643400609493256 -0.5266469717025757
          -0.6112890243530273 0.5357530117034912 -0.5824909806251526 -0.8406530022621155 0.45739200711250305 -0.28999200463294983
          -0.8718900084495544 0.17549599707126617 -0.45717599987983704 -0.4890669882297516 0.692255973815918 -0.5306559801101685
          -0.4241639971733093 0.8130900263786316 -0.3987109959125519 -0.8018289804458618 0.4695869982242584 -0.3695400059223175
          -0.4961859881877899 0.8652399778366089 0.07182200253009796 -0.29973098635673523 0.9439510107040405 0.13826599717140198
          -0.6557859778404236 0.7444080114364624 -0.1257070004940033 -0.7206519842147827 0.6556779742240906 -0.22527100145816803
          -0.7170630097389221 0.5513730049133301 -0.42638999223709106 -0.5760700106620789 0.6938620209693909 -0.4320870041847229
          -0.3912310004234314 0.9028139710426331 -0.17850500345230103 -0.2441059947013855 0.9597030282020569 0.1392199993133545
          -0.5785840153694153 0.6856430172920227 -0.4417409896850586 -0.497063010931015 0.6448630094528198 -0.5805870294570923
          -0.6670089960098267 0.6624050140380859 -0.3410550057888031 -0.4373370110988617 0.6065679788589478 -0.6639360189437866
          -0.45482200384140015 0.5891919732093811 -0.6678249835968018 -0.4556320011615753 0.6082370281219482 -0.6499590277671814
          -0.5545979738235474 0.5682920217514038 -0.6078360080718994 -0.27760401368141174 0.5147160291671753 -0.8111739754676819
          -0.4463149905204773 0.2982740104198456 -0.8437029719352722 -0.3617219924926758 0.3321389853954315 -0.8711150288581848
          -0.11616499722003937 0.1553640067577362 -0.9810029864311218 -0.1563130021095276 0.11372800171375275 -0.9811379909515381
          -0.11113300174474716 0.43261298537254333 -0.8947039842605591 0.15184099972248077 0.41768500208854675 -0.8958140015602112
          0.13139300048351288 0.2353069931268692 -0.9629989862442017 -0.3563790023326874 0.5391870141029358 -0.7630680203437805
          -0.06836999952793121 0.17304299771785736 -0.9825379848480225 -0.391851007938385 -0.03577699884772301 -0.9193329811096191
          -0.23042599856853485 0.029075000435113907 -0.9726549983024597 -0.30910900235176086 0.003432000055909157 -0.9510200023651123
          -0.9123449921607971 -0.09918399900197983 -0.3972269892692566 -0.8579879999160767 -0.09297700226306915 -0.5051850080490112
          -0.8089389801025391 -0.03802900016307831 -0.5866619944572449 -0.7910040020942688 -0.14227500557899475 -0.5950379967689514
          -0.5308070182800293 -0.1103229969739914 -0.8402810096740723 -0.3983680009841919 -0.040247999131679535 -0.91634202003479
          -0.780659019947052 -0.13448600471019745 -0.6103150248527527 -0.8159390091896057 -0.1520639955997467 -0.5577809810638428
          -0.9319369792938232 -0.17119699716567993 -0.31966501474380493 -0.6104030013084412 0.4307369887828827 -0.6647359728813171
          -0.7279750108718872 0.44582998752593994 -0.5208529829978943 -0.7572839856147766 0.18261800706386566 -0.6270340085029602
          -0.3348729908466339 0.7402759790420532 -0.58296799659729 -0.3129029870033264 0.8079130053520203 -0.49936801195144653
          -0.20150500535964966 0.7778170108795166 -0.5953130125999451 -0.19332900643348694 0.6976839900016785 -0.689827024936676
          -0.3046939969062805 0.9461020231246948 -0.10977800190448761 -0.15432000160217285 0.9847019910812378 0.08091600239276886
          -0.011517000384628773 0.9680830240249634 0.2503660023212433 -0.4933429956436157 0.8071209788322449 -0.3242970108985901
          -0.5731899738311768 0.8034189939498901 -0.16115699708461761 -0.7135710120201111 0.6602699756622314 -0.23422400653362274
          -0.6329500079154968 0.6127790212631226 -0.47315600514411926 -0.3444870114326477 0.5943959951400757 -0.7266510128974915
          -0.04458700120449066 0.7736489772796631 -0.6320440173149109 -0.18203100562095642 0.9097229838371277 -0.37318700551986694
          -0.2993890047073364 0.9436079859733582 -0.1413159966468811 -0.22688500583171844 0.8844349980354309 -0.4077959954738617
          -0.0006629999843426049 0.8894659876823425 0.4570010006427765 -0.1313689947128296 0.9909870028495789 0.02622699923813343
          -0.17598600685596466 0.9459750056266785 -0.27232399582862854 -0.48576098680496216 0.715116024017334 -0.5026379823684692
          -0.5023000240325928 0.8175899982452393 -0.2814989984035492 -0.4314950108528137 0.8225169777870178 -0.370510995388031
          -0.4515860080718994 0.6624580025672913 -0.597678005695343 -0.4401560127735138 0.7851539850234985 -0.43565499782562256
          -0.44837599992752075 0.7702100276947021 -0.4535819888114929 -0.4930169880390167 0.6556000113487244 -0.5719460248947144
          -0.6661549806594849 0.5276209712028503 -0.5271180272102356 -0.5578579902648926 0.530784010887146 -0.6380149722099304
          -0.6138830184936523 0.5645130276679993 -0.5517899990081787 -0.3358289897441864 0.47889500856399536 -0.8110970258712769
          -0.7061030268669128 0.5543950200080872 -0.440528005361557 -0.5488119721412659 0.6941869854927063 -0.46573498845100403
          -0.7255979776382446 0.46657198667526245 -0.5057849884033203 0.748557984828949 0.09354899823665619 -0.6564369797706604
          -0.6891909837722778 0.10042700171470642 -0.7175859808921814 0.27334699034690857 0.16175200045108795 -0.9482179880142212
          -0.4258350133895874 0.2406270056962967 -0.8722169995307922 0.03821200132369995 0.1913519948720932 -0.9807770252227783
          0.011824999935925007 0.6407390236854553 -0.7676680088043213 0.3079510033130646 0.4226599931716919 -0.8523640036582947
          0.1703830063343048 0.6344630122184753 -0.753940999507904 0.27792200446128845 0.30778199434280396 -0.9099609851837158
          0.17802399396896362 0.36871200799942017 -0.9123370051383972 0.053380001336336136 0.2121790051460266 -0.9757720232009888
          0.004242999944835901 0.06123499944806099 -0.9981139898300171 -0.16271699965000153 -0.013690000399947166 -0.9865779876708984
          -0.24852800369262695 -0.0462069995701313 -0.9675220251083374 -0.8898190259933472 -0.047426000237464905 -0.45384299755096436
          -0.8398699760437012 -0.09405899792909622 -0.5345759987831116 -0.8760560154914856 -0.05704199895262718 -0.4788239896297455
          -0.9451779723167419 -0.09278099983930588 -0.3130989968776703 -0.8847690224647522 -0.09719499945640564 -0.4557810127735138
          -0.8559749722480774 -0.1127920001745224 -0.5045639872550964 -0.6233689785003662 0.02027600072324276 -0.7816640138626099
          -0.8640260100364685 -0.13138200342655182 -0.48600199818611145 -0.7719299793243408 -0.1127920001745224 -0.6256219744682312
          -0.26335999369621277 -0.13180099427700043 -0.9556509852409363 -0.455049991607666 -0.10688299685716629 -0.8840280175209045
          -0.03144200146198273 0.7934759855270386 -0.6077889800071716 0.040376000106334686 0.9978119730949402 -0.05236100032925606
          0.2214760035276413 0.9619420170783997 0.16005000472068787 -0.3874790072441101 0.9205470085144043 0.04952099919319153
          -0.4959309995174408 0.8680310249328613 -0.023993000388145447 -0.4983769953250885 0.8466690182685852 -0.18647199869155884
          -0.37231600284576416 0.9163500070571899 -0.14725500345230103 -0.5857750177383423 0.7847369909286499 -0.2026209980249405
          -0.5677890181541443 0.7629470229148865 -0.3090749979019165 -0.7368249893188477 0.5862730145454407 -0.33670899271965027
          -0.5877590179443359 0.6634659767150879 -0.46298301219940186 -0.5050870180130005 0.5351300239562988 -0.6771429777145386
          -0.0478070005774498 0.49511000514030457 -0.8675140142440796 -0.18329599499702454 0.4556320011615753 -0.8710920214653015
          0.0711439996957779 0.5241150259971619 -0.848671019077301 0.20688199996948242 0.8666530251502991 -0.4539969861507416
          0.2629519999027252 0.9173219799995422 -0.2989580035209656 0.036657001823186874 0.8048689961433411 0.5923190116882324
          0.29864901304244995 0.4889880120754242 0.8195729851722717 -0.02726699970662594 0.9341030120849609 0.35596099495887756
          -0.0008399999933317304 0.9797090291976929 -0.200423002243042 -0.04743799939751625 0.9100459814071655 -0.41178300976753235
          -0.349388986825943 0.9354869723320007 -0.05282999947667122 -0.27499499917030334 0.9537799954414368 -0.12116699665784836
          -0.3143100142478943 0.9347919821739197 -0.16544799506664276 -0.4589030146598816 0.8016819953918457 -0.38303399085998535
          -0.4201819896697998 0.881259024143219 -0.21640199422836304 -0.5967389941215515 0.7538579702377319 -0.27495700120925903
          -0.8486790060997009 0.427482008934021 -0.3114530146121979 -0.7573469877243042 0.3812069892883301 -0.5301949977874756
          -0.8620709776878357 0.3691219985485077 -0.3472509980201721 -0.8384490013122559 0.3899030089378357 -0.3807609975337982
          -0.8682169914245605 0.3690420091152191 -0.3316720128059387 -0.6701390147209167 0.4297749996185303 -0.6051499843597412
          -0.6978520154953003 0.33164700865745544 -0.6348329782485962 -0.515267014503479 0.3545309901237488 -0.7802609801292419
          -0.8720300197601318 0.4426330029964447 -0.20890100300312042 -0.7903100252151489 0.560213029384613 -0.2481359988451004
          0.9471759796142578 0.03262000158429146 -0.31905099749565125 -0.6092470288276672 0.024860000237822533 -0.7925909757614136
          -0.4707289934158325 0.004782999865710735 -0.8822649717330933 -0.6320919990539551 0.059714000672101974 -0.7725899815559387
          0.39998099207878113 0.38653600215911865 -0.831026017665863 0.3098439872264862 0.6393110156059265 -0.703760027885437
          0.4153349995613098 0.5553659796714783 -0.7204620242118835 0.471329003572464 0.433804988861084 -0.767894983291626
          0.16455799341201782 0.32702401280403137 -0.9305779933929443 0.3266170024871826 0.36611199378967285 -0.8713690042495728
          0.42146700620651245 0.5010550022125244 -0.7558500170707703 0.28848499059677124 0.2095170021057129 -0.9342799782752991
          0.2515679895877838 0.10816200077533722 -0.9617769718170166 0.1310259997844696 0.08149799704551697 -0.9880239963531494
          0.06244499981403351 -0.010904000140726566 -0.9979889988899231 0.2389110028743744 0.015092999674379826 -0.9709240198135376
          0.27886199951171875 0.045010000467300415 -0.959276020526886 -0.016838999465107918 -0.09334799647331238 -0.9954910278320312
          -0.08655600249767303 -0.14433999359607697 -0.9857349991798401 -0.18167400360107422 -0.112745001912117 -0.9768739938735962
          -0.9290720224380493 -0.12070100009441376 -0.3496519923210144 -0.8524450063705444 -0.07252900302410126 -0.5177620053291321
          -0.8690249919891357 -0.11924000084400177 -0.48018398880958557 -0.7725359797477722 -0.09627799689769745 -0.6276289820671082
          -0.7766439914703369 -0.21085600554943085 -0.5936020016670227 -0.7563380002975464 -0.167480006814003 -0.6323789954185486
          -0.9096320271492004 -0.0896570011973381 -0.40562498569488525 -0.7871919870376587 -0.06867700070142746 -0.6128730177879333
          -0.8147850036621094 -0.12218300253152847 -0.5667420029640198 -0.9262930154800415 -0.1251789927482605 -0.35540398955345154
          -0.73191899061203 -0.1072240024805069 -0.6729030013084412 -0.6328099966049194 -0.09164900332689285 -0.7688639760017395
          -0.19460099935531616 -0.13553500175476074 -0.971472978591919 -0.04885299876332283 -0.21185800433158875 -0.976078987121582
          -0.156016007065773 -0.17601099610328674 -0.9719460010528564 -0.2788090109825134 -0.10162899643182755 -0.9549540281295776
          -0.5311359763145447 -0.08335399627685547 -0.8431770205497742 0.16612699627876282 0.7903620004653931 -0.5896859765052795
          0.8974239826202393 0.4027790129184723 -0.17999699711799622 0.6812829971313477 0.6739140152931213 0.28582000732421875
          -0.4728739857673645 0.8801940083503723 0.04061000049114227 -0.3836030066013336 0.9087690114974976 0.1642789989709854
          -0.16387400031089783 0.934224009513855 0.31681400537490845 -0.23689499497413635 0.9681040048599243 0.08158700168132782
          -0.32241201400756836 0.9285910129547119 -0.1837639957666397 -0.2786569893360138 0.8804219961166382 -0.3836750090122223
          -0.42704901099205017 0.7794219851493835 -0.45840001106262207 -0.2743920087814331 0.7950299978256226 -0.5409579873085022
          -0.4011459946632385 0.767769992351532 -0.4996109902858734 -0.29059600830078125 0.6921280026435852 -0.6606910228729248
          -0.23270699381828308 0.48483899235725403 -0.8430770039558411 -0.1485919952392578 0.302839994430542 -0.9413869976997375
          -0.08893100172281265 0.7823989987373352 -0.6163949966430664 -0.27291199564933777 0.278562992811203 -0.9208269715309143
          0.4071139991283417 0.7165399789810181 -0.5664179921150208 0.9162870049476624 0.33053499460220337 -0.2261980026960373
          0.10843200236558914 0.6049110293388367 0.7888759970664978 0.09106499701738358 0.9730169773101807 0.2120019942522049
          0.14260700345039368 0.8696569800376892 0.4726110100746155 0.36312898993492126 0.6962710022926331 0.6191480159759521
          0.06225400045514107 0.11954200267791748 0.9908750057220459 0.948639988899231 0.2888050079345703 0.12912599742412567
          -0.0856269970536232 0.2328750044107437 0.9687299728393555 0.2512489855289459 0.882066011428833 -0.3985379934310913
          -0.05481100082397461 0.9878460168838501 0.14544999599456787 -0.25330600142478943 0.9662910103797913 -0.04602399840950966
          -0.11592499911785126 0.991998016834259 0.050005000084638596 -0.2141209989786148 0.9763200283050537 -0.03084699995815754
          -0.034742001444101334 0.9993749856948853 -0.00648899981752038 -0.15382499992847443 0.987637996673584 -0.030135000124573708
          -0.5131239891052246 0.8178679943084717 -0.2603760063648224 -0.6108589768409729 0.7915459871292114 0.017474999651312828
          -0.4469529986381531 0.8935959935188293 0.041460998356342316 -0.744238018989563 0.659026026725769 0.10860499739646912
          -0.7786639928817749 0.6260949969291687 -0.04107600077986717 -0.9420040249824524 0.3345470130443573 -0.02660199999809265
          -0.9602659940719604 0.2670629918575287 -0.08103600144386292 -0.9516299962997437 0.3055340051651001 -0.032395001500844955
          -0.9367020130157471 0.24050599336624146 -0.25445398688316345 -0.90618497133255 0.0837550014257431 -0.4145039916038513
          -0.7725949883460999 0.25585800409317017 -0.5810620188713074 -0.9717720150947571 0.14276400208473206 -0.18782399594783783
          -0.9474760293960571 0.11969999969005585 -0.29658201336860657 -0.924248993396759 0.24922800064086914 -0.28922200202941895
          -0.9816979765892029 0.08419699966907501 -0.17082199454307556 -0.7246689796447754 0.2947959899902344 -0.6228560209274292
          -0.8009669780731201 0.06324400007724762 -0.5953580141067505 -0.8937569856643677 0.4357140064239502 0.10654599964618683
          -0.9486669898033142 0.23618599772453308 0.21035000681877136 -0.7765169739723206 -0.16064900159835815 -0.6092730164527893
          0.4999440014362335 0.6053590178489685 -0.6193510293960571 0.4348500072956085 0.6857330203056335 -0.5836740136146545
          0.5817229747772217 0.4118089973926544 -0.7014359831809998 0.42569801211357117 0.6574580073356628 -0.6217160224914551
          0.622564971446991 0.4308449923992157 -0.6532880067825317 0.6065930128097534 0.4820849895477295 -0.6321700215339661
          0.48125699162483215 0.26791200041770935 -0.834634006023407 0.5338069796562195 0.4364050030708313 -0.7242940068244934
          0.4814850091934204 0.10991299897432327 -0.8695350289344788 0.34714698791503906 -0.10406800359487534 -0.9320189952850342
          0.43240299820899963 -0.050136998295784 -0.900285005569458 0.2290170043706894 -0.21969099342823029 -0.9483069777488708
          -0.8279399871826172 -0.18795500695705414 -0.5283830165863037 -0.8740820288658142 -0.2663170099258423 -0.4062710106372833
          -0.8692799806594849 -0.14770600199699402 -0.47173699736595154 -0.910647988319397 -0.22841200232505798 -0.344307005405426
          -0.8390139937400818 -0.14388300478458405 -0.524740993976593 -0.855696976184845 -0.35840800404548645 -0.37326401472091675
          -0.8709189891815186 -0.34359899163246155 -0.35134100914001465 -0.8936560153961182 -0.30695998668670654 -0.32734400033950806
          -0.8570449948310852 -0.2670249938964844 -0.44064900279045105 -0.860351026058197 -0.17315100133419037 -0.4793910086154938
          -0.8581690192222595 -0.30503401160240173 -0.41291698813438416 -0.9400669932365417 -0.2027920037508011 -0.2741349935531616
          -0.9297569990158081 -0.26937299966812134 -0.2509790062904358 -0.6773769855499268 -0.08750499784946442 -0.7304139733314514
          -0.7790669798851013 -0.10564099997282028 -0.6179770231246948 -0.8005149960517883 -0.11219099909067154 -0.5887179970741272
          -0.052668001502752304 -0.15173999965190887 -0.9870160222053528 0.01785999909043312 -0.16803200542926788 -0.9856200218200684
          -0.04201800003647804 -0.07862900197505951 -0.9960179924964905 0.22039400041103363 -0.2890079915523529 -0.9316120147705078
          -0.030308999121189117 -0.22508500516414642 -0.9738680124282837 -0.20798499882221222 -0.07556000351905823 -0.9752089977264404
          -0.7441930174827576 -0.0756869986653328 -0.6636630296707153 -0.37281501293182373 -0.03954799845814705 -0.92706298828125
          -0.799435019493103 -0.04974199831485748 -0.5986899733543396 -0.8071510195732117 -0.06732600182294846 -0.5864940285682678
          -0.6642029881477356 -0.05664300173521042 -0.745402991771698 0.9708830118179321 0.07612399756908417 -0.22713600099086761
          0.9958990216255188 0.04379500076174736 -0.07915999740362167 -0.2136940062046051 0.9716219902038574 -0.1014150008559227
          -0.24488699436187744 0.9310230016708374 0.2706040143966675 -0.12157899886369705 0.9923869967460632 0.019666999578475952
          0.013539999723434448 0.9496889710426331 0.3129020035266876 0.04022400081157684 0.9212319850921631 0.3869290053844452
          0.11320900171995163 0.8768399953842163 0.46726399660110474 -0.056634001433849335 0.9619770050048828 0.2671929895877838
          -0.00837399996817112 0.9093919992446899 0.4158560037612915 -0.023684000596404076 0.9061139822006226 0.42236998677253723
          -0.0033660000190138817 0.9667069911956787 0.2558650076389313 0.09956800192594528 0.8579829931259155 -0.5039370059967041
          0.06704699993133545 0.7100399732589722 -0.7009620070457458 -0.1182980015873909 0.6590750217437744 -0.7427150011062622
          -0.10728000104427338 0.6606370210647583 -0.7430009841918945 -0.05667699873447418 0.5202170014381409 -0.8521509766578674
          -0.07445500046014786 0.4495829939842224 -0.8901299834251404 -0.3183650076389313 0.35336801409721375 -0.8796449899673462
          -0.4378109872341156 0.5906559824943542 -0.6778249740600586 0.29410499334335327 0.627236008644104 -0.7211639881134033
          -0.3378030061721802 0.6254079937934875 -0.703387975692749 -0.4408459961414337 0.40533098578453064 -0.8008509874343872
          0.5884249806404114 0.37957099080085754 -0.7139210104942322 0.3840020000934601 0.9030519723892212 0.19246000051498413
          0.17830699682235718 0.7921559810638428 0.5836910009384155 -0.3076319992542267 0.36956098675727844 0.8768050074577332
          -0.2585040032863617 0.5437690019607544 0.7984300255775452 0.32856500148773193 0.9444530010223389 -0.007298999931663275
          0.08115600049495697 0.8222929835319519 -0.5632479786872864 0.9054669737815857 0.33890300989151 -0.2554889917373657
          -0.5059900283813477 0.8253390192985535 0.25057798624038696 0.4934940040111542 0.8029630184173584 -0.3342359960079193
          0.04013499990105629 0.9891780018806458 0.14112399518489838 0.2521800100803375 0.9166200160980225 0.3101840019226074
          -0.18687300384044647 0.9803749918937683 0.06278900057077408 0.09069599956274033 0.9931100010871887 0.07420899718999863
          0.8011580109596252 0.59831702709198 0.012744000181555748 0.8037239909172058 0.5938090085983276 0.03767000138759613
          -0.4455380141735077 0.8865110278129578 0.12487699836492538 -0.1702450066804886 0.9849200248718262 0.03081599995493889
          -0.23780499398708344 0.9626070261001587 0.1297529935836792 -0.42211899161338806 0.8889480233192444 0.17772699892520905
          0.6498990058898926 0.7595940232276917 0.02546199969947338 -0.6248469948768616 0.7375199794769287 0.256182998418808
          -0.7239559888839722 0.6086170077323914 0.3247680068016052 -0.6180170178413391 0.729649007320404 0.2926909923553467
          -0.8514580130577087 0.42661699652671814 0.30498600006103516 -0.7886459827423096 0.4955820143222809 0.3639169931411743
          -0.9579100012779236 0.21442900598049164 0.1908629983663559 -0.9578040242195129 0.18111799657344818 0.22317799925804138
          -0.9839379787445068 0.00531500019133091 0.17843300104141235 -0.9782320261001587 -0.03112800046801567 -0.20516900718212128
          -0.9306049942970276 -0.11138500273227692 -0.3486660122871399 -0.9716240167617798 -0.16402600705623627 -0.17041899263858795
          -0.9802820086479187 -0.1298920065164566 -0.1489109992980957 -0.9855530261993408 -0.16656500101089478 0.030698999762535095
          -0.8713769912719727 -0.21661899983882904 -0.440201997756958 -0.9147260189056396 0.2804110050201416 0.29093900322914124
          -0.8872830271720886 0.2374659925699234 0.39539700746536255 -0.8745610117912292 -0.005514000076800585 0.48488399386405945
          -0.9020419716835022 0.05909600108861923 0.4275830090045929 -0.8916199803352356 0.09466999769210815 0.44277599453926086
          0.6217830181121826 0.5766900181770325 -0.5299180150032043 0.5376489758491516 0.671205997467041 -0.5103099942207336
          0.5564240217208862 0.7187529802322388 -0.4168759882450104 0.6196179986000061 0.5285850167274475 -0.5802329778671265
          0.5511459708213806 0.5746129751205444 -0.6050270199775696 0.6478909850120544 0.42550501227378845 -0.6318089962005615
          0.6373460292816162 0.4308739900588989 -0.6388559937477112 0.6606400012969971 0.4658620059490204 -0.5886660218238831
          0.6045160293579102 0.43050000071525574 -0.6702460050582886 0.7048450112342834 0.4653550088405609 -0.5353860259056091
          0.5942230224609375 0.2850779891014099 -0.7520840167999268 0.5699710249900818 0.06615599989891052 -0.8189970254898071
          0.6553580164909363 0.24065299332141876 -0.7159550189971924 0.5417490005493164 -0.09547200053930283 -0.8351010084152222
          0.5632410049438477 -0.20934799313545227 -0.7993329763412476 0.4906499981880188 -0.25886398553848267 -0.8320170044898987
          0.5304399728775024 -0.217072993516922 -0.8194590210914612 -0.8763480186462402 -0.3248499929904938 -0.35565000772476196
          -0.8663690090179443 -0.2427850067615509 -0.43641701340675354 -0.9238020181655884 -0.28186601400375366 -0.2591170072555542
          -0.8971279859542847 -0.37681201100349426 -0.2305929958820343 -0.8918169736862183 -0.37132298946380615 -0.2584199905395508