<?xml version="1.0"?>
<VTKFile type="PolyData" version="0.1" byte_order="LittleEndian" header_type="UInt32" compressor="vtkZLibDataCompressor">
  <PolyData>
    <Piece NumberOfPoints="958" NumberOfVerts="0" NumberOfLines="0" NumberOfStrips="0" NumberOfPolys="1070">
      <PointData Normals="Normals">
        <DataArray type="Float32" Name="Normals" NumberOfComponents="3" format="ascii" RangeMin="0.999999319189756" RangeMax="1.0000007951479355">
          0.532846987247467 0.6402029991149902 0.553367018699646 0.5842490196228027 0.022609999403357506 0.8112599849700928
          0.9544079899787903 -0.1930360049009323 0.22768999636173248 -0.06767900288105011 0.8102229833602905 0.5822020173072815
          -0.34404799342155457 0.04377099871635437 0.9379310011863708 0.5112919807434082 0.8293290138244629 0.22537599503993988
          0.05057299882173538 0.9902909994125366 0.12948200106620789 0.5206050276756287 -0.6114109754562378 0.5959420204162598
          -0.45786699652671814 -0.742251992225647 0.4893060028553009 0.5549399852752686 0.8318510055541992 -0.008077000267803669
          0.697583019733429 0.6765890121459961 -0.23580700159072876 0.8969339728355408 -0.006548999808728695 -0.44211599230766296
          0.6880999803543091 -0.6739439964294434 -0.2689189910888672 0.5384430289268494 -0.8424530029296875 -0.01877499930560589
          0.4914090037345886 -0.8365190029144287 0.24239200353622437 0.15051500499248505 0.6953809857368469 0.702701985836029
          -0.2601270079612732 -0.13230599462985992 0.9564669728279114 0.2779879868030548 0.9396460056304932 0.19947099685668945
          -0.49830201268196106 -0.7726500034332275 0.393328994512558 0.0632769986987114 0.9628490209579468 -0.26252299547195435
          0.28979700803756714 0.875823974609375 -0.38593900203704834 -0.4752179980278015 -0.8764920234680176 0.07700199633836746
          -0.5524349808692932 -0.8332359790802002 0.023104999214410782 0.10792800039052963 0.6025220155715942 -0.7907710075378418
          0.07195299863815308 -0.22240200638771057 -0.9722959995269775 -0.22719499468803406 -0.6774629950523376 -0.6995900273323059
          -0.4839800000190735 -0.8634570240974426 -0.14214399456977844 0.2176090031862259 0.832148015499115 0.5100740194320679
          0.427046000957489 0.12496999651193619 0.8955529928207397 0.12147500365972519 0.9817720055580139 0.14617900550365448
          0.39658498764038086 -0.6710789799690247 0.6263980269432068 0.2828400135040283 0.9309319853782654 -0.23101100325584412
          0.365011990070343 -0.9008749723434448 0.2349269986152649 0.11514099687337875 -0.17543700337409973 -0.9777340292930603
          0.5507509708404541 0.4824190139770508 -0.6811349987983704 -0.5947129726409912 -0.7278079986572266 -0.341484010219574
          0.4758009910583496 -0.8346689939498901 -0.2773840129375458 -0.20265600085258484 -0.35481899976730347 -0.9127069711685181
          -0.44977399706840515 -0.08028899878263474 -0.8895260095596313 -0.14417299628257751 0.782069981098175 0.6062849760055542
          -0.3395389914512634 0.19698700308799744 0.9197329878807068 0.8594849705696106 0.49342700839042664 0.13347400724887848
          -0.094760000705719 -0.7639709711074829 0.6382550001144409 0.18114399909973145 0.9004539847373962 -0.39543700218200684
          0.005464000161737204 -0.9809640049934387 0.19411200284957886 0.12729400396347046 0.705286979675293 -0.6973999738693237
          0.10104600340127945 -0.9479740262031555 -0.30188700556755066 0.5695319771766663 0.22001299262046814 -0.7919769883155823
          0.2346149981021881 0.271807998418808 -0.9333149790763855 0.6132329702377319 -0.10733000189065933 -0.7825760245323181
          0.21618899703025818 -0.37219101190567017 -0.9026280045509338 -0.9825490117073059 -0.18557800352573395 -0.012563000433146954
          -0.986844003200531 0.0050200000405311584 0.16159600019454956 -0.3625270128250122 -0.9075779914855957 -0.2118390053510666
          -0.9473749995231628 -0.307763010263443 0.08810199797153473 -0.8985859751701355 -0.05643000081181526 -0.435153990983963
          -0.8904569745063782 -0.44953200221061707 -0.07075999677181244 -0.7922289967536926 0.25153300166130066 -0.5559719800949097
          -0.8586869835853577 -0.43073999881744385 -0.27770599722862244 -0.7910919785499573 0.008042000234127045 -0.6116440296173096
          -0.8407160043716431 -0.19831399619579315 -0.5038530230522156 -0.9882590174674988 -0.0009599999757483602 -0.15278799831867218
          0.5326719880104065 0.6405410170555115 0.5531439781188965 0.5842599868774414 0.022859999909996986 0.8112450242042542
          0.9545249938964844 -0.1925240010023117 0.22763000428676605 -0.06758999824523926 0.8101540207862854 0.582306981086731
          -0.3441149890422821 0.04386499896645546 0.9379019737243652 0.5109840035438538 0.8295189738273621 0.2253739982843399
          0.050714001059532166 0.990261971950531 0.12964899837970734 0.5206230282783508 -0.6112980246543884 0.5960419774055481
          -0.4580090045928955 -0.7420110106468201 0.4895380139350891 0.5549100041389465 0.8318719863891602 -0.007968000136315823
          0.6976519823074341 0.6764810085296631 -0.23591400682926178 0.8968700170516968 -0.005892000161111355 -0.4422549903392792
          0.6884459853172302 -0.6735299825668335 -0.2690739929676056 0.5384349822998047 -0.8424620032310486 -0.01858600042760372
          0.4913620054721832 -0.83651202917099 0.2425069957971573 0.150177001953125 0.6953920125961304 0.7027639746665955
          -0.2604230046272278 -0.13230299949645996 0.9563869833946228 0.27767398953437805 0.939732015132904 0.19950300455093384
          -0.49853798747062683 -0.7724000215530396 0.3935210108757019 0.06333000212907791 0.9627280235290527 -0.2629539966583252
          0.2896049916744232 0.8756250143051147 -0.38653698563575745 -0.4753420054912567 -0.8764119744300842 0.07714500278234482
          -0.5526120066642761 -0.8331140279769897 0.023276999592781067 0.10792899876832962 0.6016179919242859 -0.7914590239524841
          0.07192199677228928 -0.22234199941158295 -0.9723119735717773 -0.2274480015039444 -0.6774539947509766 -0.6995159983634949
          -0.4840629994869232 -0.8633949756622314 -0.14223900437355042 0.2174849957227707 0.8321369886398315 0.5101460218429565
          0.4268369972705841 0.12496399879455566 0.8956530094146729 0.12158200144767761 0.9817420244216919 0.14628799259662628
          0.396479994058609 -0.6709610223770142 0.6265910267829895 0.28301000595092773 0.9308469891548157 -0.23114900290966034
          0.3650650084018707 -0.9007909893989563 0.23516599833965302 0.11479900032281876 -0.17606300115585327 -0.9776620268821716
          0.5508559942245483 0.4822219908237457 -0.6811910271644592 -0.5946699976921082 -0.7277529835700989 -0.3416779935359955
          0.47597599029541016 -0.8345980048179626 -0.27729400992393494 -0.20283100008964539 -0.3551979959011078 -0.9125210046768188
          -0.4498879909515381 -0.08073899894952774 -0.8894280195236206 -0.1493300050497055 0.7807049751281738 0.6067960262298584
          -0.33896300196647644 0.1969590038061142 0.9199519753456116 0.8635200262069702 0.48719900846481323 0.13027000427246094
          -0.09462299942970276 -0.763945996761322 0.6383050084114075 0.17657800018787384 0.8999639749526978 -0.39860400557518005
          0.005475999787449837 -0.9809250235557556 0.19430899620056152 0.12750500440597534 0.7053080201148987 -0.6973400115966797
          0.10116299986839294 -0.9479960203170776 -0.3017759919166565 0.5695719718933105 0.22014500200748444 -0.7919120192527771
          0.23456400632858276 0.272258996963501 -0.9331960082054138 0.6134160161018372 -0.10718999803066254 -0.7824519872665405
          0.21604099869728088 -0.37230199575424194 -0.9026169776916504 -0.9819470047950745 -0.18862299621105194 -0.014227000065147877
          -0.9867820143699646 0.00482999999076128 0.16198299825191498 -0.36980998516082764 -0.9044619798660278 -0.2125770002603531
          -0.9472500085830688 -0.308133989572525 0.08814900368452072 -0.8990859985351562 -0.0613350011408329 -0.4334540069103241
          -0.8904780149459839 -0.4495159983634949 -0.07059100270271301 -0.7918999791145325 0.2522349953651428 -0.5561220049858093
          -0.8586999773979187 -0.4308350086212158 -0.27751800417900085 -0.791051983833313 0.008608000352978706 -0.6116889715194702
          -0.8408010005950928 -0.1984259933233261 -0.5036680102348328 -0.9882590174674988 -0.0008720000041648746 -0.1527860015630722
          0.532588005065918 0.6404619812965393 0.5533149838447571 0.5843049883842468 0.022679999470710754 0.8112170100212097
          0.9544339776039124 -0.1928499937057495 0.22774000465869904 -0.06759300082921982 0.8100699782371521 0.5824249982833862
          -0.34398698806762695 0.0429220013320446 0.9379929900169373 0.5111050009727478 0.8293579816818237 0.2256920039653778
          0.0506570003926754 0.9902719855308533 0.129598006606102 0.5203779935836792 -0.6116970181465149 0.5958470106124878
          -0.4575830101966858 -0.7425140142440796 0.4891729950904846 0.5549319982528687 0.8318579792976379 -0.007992000319063663
          0.6974729895591736 0.6766999959945679 -0.23581600189208984 0.8969209790229797 -0.006694999989122152 -0.44214099645614624
          0.6878200173377991 -0.6742640137672424 -0.26883500814437866 0.5383660197257996 -0.8424990177154541 -0.018882999196648598
          0.4913119971752167 -0.8365659713745117 0.24242499470710754 0.1502940058708191 0.6951919794082642 0.7029370069503784
          -0.25999099016189575 -0.13281700015068054 0.9564329981803894 0.27762800455093384 0.9397580027580261 0.19944199919700623
          -0.49800699949264526 -0.7726969718933105 0.3936089873313904 0.06344100087881088 0.9628990292549133 -0.26229798793792725
          0.2894729971885681 0.8760079741477966 -0.38576599955558777 -0.4750869870185852 -0.8765680193901062 0.07695399969816208
          -0.5522869825363159 -0.8333330154418945 0.02314000017940998 0.10815899819135666 0.6027500033378601 -0.7905660271644592
          0.07201799750328064 -0.22248999774456024 -0.9722710251808167 -0.22724999487400055 -0.6776459813117981 -0.6993950009346008
          -0.4839499890804291 -0.8635249733924866 -0.1418370008468628 0.21754899621009827 0.8321110010147095 0.5101609826087952
          0.42704498767852783 0.12499699741601944 0.8955489993095398 0.12145999819040298 0.9817690253257751 0.14621099829673767
          0.39666301012039185 -0.6709020137786865 0.6265379786491394 0.2828400135040283 0.9309009909629822 -0.2311369925737381
          0.364982008934021 -0.9008600115776062 0.23503200709819794 0.11513999849557877 -0.17553900182247162 -0.9777160286903381
          0.5507339835166931 0.48242801427841187 -0.6811419725418091 -0.5947329998016357 -0.7279099822044373 -0.3412320017814636
          0.4757179915904999 -0.8347370028495789 -0.2773210108280182 -0.20252199470996857 -0.3550029993057251 -0.9126650094985962
          -0.4497469961643219 -0.08017300069332123 -0.889549970626831 -0.14962899684906006 0.7809849977493286 0.6063609719276428
          -0.3399600088596344 0.19721899926662445 0.9195280075073242 0.8624340295791626 0.4891830086708069 0.13002699613571167
          -0.0949070006608963 -0.7638790011405945 0.638342022895813 0.1798820048570633 0.900068998336792 -0.3968850076198578
          0.005423999857157469 -0.9809669852256775 0.19409899413585663 0.12752500176429749 0.7052299976348877 -0.6974149942398071
          0.10101299732923508 -0.9479650259017944 -0.3019239902496338 0.5697280168533325 0.21986299753189087 -0.7918779850006104
          0.23450499773025513 0.2716040015220642 -0.9334020018577576 0.6132919788360596 -0.10761100053787231 -0.7824910283088684
          0.21624800562858582 -0.3723120093345642 -0.9025629758834839 -0.9819689989089966 -0.18845899403095245 -0.014817999675869942
          -0.9868929982185364 0.005133000202476978 0.16129299998283386 -0.36720699071884155 -0.9055119752883911 -0.2126220017671585
          -0.9474689960479736 -0.3074899911880493 0.08804699778556824 -0.8988239765167236 -0.058556001633405685 -0.43438100814819336
          -0.8904920220375061 -0.4494580030441284 -0.07078699767589569 -0.792231023311615 0.25162801146507263 -0.5559260249137878
          -0.8586660027503967 -0.4306989908218384 -0.2778339982032776 -0.7912369966506958 0.007737999781966209 -0.6114599704742432
          -0.8406760096549988 -0.198511004447937 -0.5038419961929321 -0.988273024559021 -0.0008980000275187194 -0.1526930034160614
          0.532588005065918 0.6404619812965393 0.5533149838447571 0.5843020081520081 0.02318600006401539 0.8112050294876099
          0.9544579982757568 -0.1927410066127777 0.22773000597953796 -0.06756599992513657 0.8101750016212463 0.5822809934616089
          -0.3439379930496216 0.04365399852395058 0.9379770159721375 0.5111050009727478 0.8293579816818237 0.2256920039653778
          0.05068499967455864 0.990261971950531 0.12966200709342957 0.520609974861145 -0.6112849712371826 0.5960670113563538
          -0.4575659930706024 -0.7424089908599854 0.48934799432754517 0.5549309849739075 0.8318579792976379 -0.00802600011229515
          0.6975110173225403 0.676630973815918 -0.23590099811553955 0.8968889713287354 -0.006812000181525946 -0.44220298528671265
          0.6878029704093933 -0.67426997423172 -0.2688620090484619 0.5383830070495605 -0.8424890041351318 -0.018881000578403473
          0.49138501286506653 -0.8365219831466675 0.2424270063638687 0.15026499330997467 0.6955609917640686 0.7025769948959351
          -0.26017001271247864 -0.1323699951171875 0.9564459919929504 0.27771198749542236 0.9397159814834595 0.19952499866485596
          -0.4979270100593567 -0.7729009985923767 0.393310010433197 0.06338000297546387 0.9628080129623413 -0.26264598965644836
          0.289561003446579 0.8758339881896973 -0.38609498739242554 -0.47509700059890747 -0.8765590190887451 0.0769909992814064
          -0.5523470044136047 -0.8332920074462891 0.02316500060260296 0.10785099864006042 0.6021950244903564 -0.7910299897193909
          0.0717340037226677 -0.22277900576591492 -0.9722260236740112 -0.227292001247406 -0.6777160167694092 -0.6993129849433899
          -0.48414599895477295 -0.863336980342865 -0.14230599999427795 0.21775099635124207 0.8321710228919983 0.5099769830703735
          0.4271659851074219 0.12489400058984756 0.8955060243606567 0.121629998087883 0.9817429780960083 0.1462389975786209
          0.39649999141693115 -0.6711180210113525 0.6264089941978455 0.28289198875427246 0.9309030175209045 -0.2310670018196106
          0.36504700779914856 -0.9008200168609619 0.23508399724960327 0.11477500200271606 -0.17568400502204895 -0.9777330160140991
          0.5507479906082153 0.48250600695610046 -0.6810759902000427 -0.5948659777641296 -0.7276020050048828 -0.34165799617767334
          0.4758070111274719 -0.8346949815750122 -0.27729499340057373 -0.20293700695037842 -0.3551900088787079 -0.9125000238418579
          -0.4498690068721771 -0.08059100061655045 -0.8894510269165039 -0.15003499388694763 0.7807009816169739 0.6066259741783142
          -0.3397989869117737 0.19672299921512604 0.9196940064430237 0.8624839782714844 0.4892350137233734 0.12950399518013
          -0.09483399987220764 -0.7638109922409058 0.6384350061416626 0.18082000315189362 0.900081992149353 -0.39642998576164246
          0.005646000150591135 -0.9809529781341553 0.19416099786758423 0.12762099504470825 0.7052649855613708 -0.6973620057106018
          0.10111799836158752 -0.9480029940605164 -0.30177000164985657 0.5695340037345886 0.22017799317836761 -0.7919300198554993
          0.23448699712753296 0.2722969949245453 -0.9332039952278137 0.6133009791374207 -0.10734099894762039 -0.7825220227241516
          0.2161100059747696 -0.37206101417541504 -0.9027000069618225 -0.9818670153617859 -0.18897299468517303 -0.015053000301122665
          -0.9868720173835754 0.005028000101447105 0.16142599284648895 -0.36679399013519287 -0.9056289792060852 -0.2128330022096634
          -0.9474440217018127 -0.30754199624061584 0.08813799917697906 -0.898622989654541 -0.057764001190662384 -0.43490201234817505
          -0.8904619812965393 -0.4495129883289337 -0.07082299888134003 -0.7920799851417542 0.25141799449920654 -0.5562360286712646
          -0.8586699962615967 -0.4307689964771271 -0.27771300077438354 -0.7911180257797241 0.00813599955290556 -0.6116089820861816
          -0.840861976146698 -0.19803400337696075 -0.5037199854850769 -0.9882580041885376 -0.0008740000193938613 -0.15278899669647217
          0.5324519872665405 0.6407489776611328 0.5531139969825745 0.5841190218925476 0.02234099991619587 0.8113600015640259
          0.9544699788093567 -0.19255399703979492 0.22783799469470978 -0.06762800365686417 0.8100579977035522 0.5824360251426697
          -0.3442069888114929 0.04309999942779541 0.9379040002822876 0.5108069777488708 0.8296369910240173 0.2253440022468567
          0.05067100003361702 0.9902719855308533 0.12959200143814087 0.5202500224113464 -0.611723005771637 0.5959320068359375
          -0.45834100246429443 -0.7419480085372925 0.4893229901790619 0.5548830032348633 0.8318910002708435 -0.007939999923110008
          0.6975330114364624 0.6766039729118347 -0.2359129935503006 0.8968610167503357 -0.005996000021696091 -0.44227200746536255
          0.6883119940757751 -0.673708975315094 -0.26896798610687256 0.5384420156478882 -0.8424580097198486 -0.018563000485301018
          0.4912729859352112 -0.8365150094032288 0.24267999827861786 0.15025299787521362 0.6952189803123474 0.7029190063476562
          -0.2602599859237671 -0.1326500028371811 0.9563829898834229 0.27768200635910034 0.9397469758987427 0.19942200183868408
          -0.4987959861755371 -0.7722430229187012 0.39350101351737976 0.06344100087881088 0.9628990292549133 -0.26229798793792725
          0.2894670069217682 0.8759220242500305 -0.3859649896621704 -0.47572600841522217 -0.8762050271034241 0.07712700217962265
          -0.5529230237007141 -0.8329100012779236 0.02317800000309944 0.10813699662685394 0.6025649905204773 -0.7907099723815918
          0.07178699970245361 -0.22334900498390198 -0.972091019153595 -0.2273779958486557 -0.6779680252075195 -0.6990410089492798
          -0.4840810000896454 -0.8633930087089539 -0.14218899607658386 0.21750299632549286 0.8321470022201538 0.5101220011711121
          0.42695000767707825 0.12499500066041946 0.8955950140953064 0.12158700078725815 0.9817500114440918 0.14623300731182098
          0.3965640068054199 -0.6709989905357361 0.6264960169792175 0.28286099433898926 0.9308639764785767 -0.2312600016593933
          0.3650049865245819 -0.9008340239524841 0.23509299755096436 0.11510799825191498 -0.17505399882793427 -0.9778069853782654
          0.5504930019378662 0.48236700892448425 -0.6813809871673584 -0.5947999954223633 -0.727787971496582 -0.3413749933242798
          0.4757240116596222 -0.8347809910774231 -0.27717798948287964 -0.20244100689888 -0.35578298568725586 -0.9123790264129639
          -0.45000800490379333 -0.08182500302791595 -0.8892679810523987 -0.14962199330329895 0.7808660268783569 0.6065160036087036
          -0.3392220139503479 0.19723999500274658 0.9197959899902344 0.8633580207824707 0.4875029921531677 0.1302109956741333
          -0.09465599805116653 -0.7639009952545166 0.6383529901504517 0.1774660050868988 0.9000629782676697 -0.3979850113391876
          0.005565000232309103 -0.9809430241584778 0.1942179948091507 0.12748999893665314 0.7053580284118652 -0.6972919702529907
          0.10120300203561783 -0.9479870200157166 -0.30179399251937866 0.5695160031318665 0.22007900476455688 -0.7919700145721436
          0.23427100479602814 0.2718749940395355 -0.933381974697113 0.6133409738540649 -0.10764899849891663 -0.7824479937553406
          0.2160169929265976 -0.3724370002746582 -0.9025670289993286 -0.9819269776344299 -0.18870100378990173 -0.014550000429153442
          -0.9868059754371643 0.005235000047832727 0.16182200610637665 -0.3693700134754181 -0.9046279788017273 -0.2126380056142807
          -0.9473919868469238 -0.30768200755119324 0.08820600062608719 -0.8990179896354675 -0.06059199944138527 -0.43369901180267334
          -0.890470027923584 -0.44950398802757263 -0.07077900320291519 -0.7919989824295044 0.25207000970840454 -0.5560569763183594
          -0.8586509823799133 -0.4308130145072937 -0.2777020037174225 -0.791163980960846 0.00823500007390976 -0.6115480065345764
          -0.8408010005950928 -0.1984259933233261 -0.5036680102348328 -0.9882479906082153 -0.0007570000016130507 -0.15285499393939972
          0.815081000328064 0.20681899785995483 0.5411739945411682 0.7771819829940796 -0.09936100244522095 0.6213819980621338
          0.9500510096549988 -0.2118690013885498 0.22915999591350555 0.19798900187015533 0.5374850034713745 0.8197010159492493
          0.0705069974064827 -0.06849700212478638 0.99515700340271 0.8753179907798767 0.36972498893737793 0.3116450011730194
          0.3083359897136688 0.8864250183105469 0.3452250063419342 0.7709400057792664 -0.4187540113925934 0.47989198565483093
          0.054510001093149185 -0.656728982925415 0.7521539926528931 0.9297230243682861 0.3680439889431 0.012593000195920467
          0.9602550268173218 0.1841530054807663 -0.20975899696350098 0.9575430154800415 -0.1232839971780777 -0.2605989873409271
          0.9092479944229126 -0.3962459862232208 -0.12750400602817535 0.8539310097694397 -0.5169079899787903 0.06005899980664253
          0.8060669898986816 -0.5382540225982666 0.2460470050573349 -0.11276300251483917 0.48555898666381836 0.8669000267982483
          -0.23100699484348297 -0.14376899600028992 0.962270975112915 0.02277900092303753 0.9335770010948181 0.3576520085334778
          -0.2534460127353668 -0.6903340220451355 0.6776459813117981 0.3567279875278473 0.832705020904541 -0.42349401116371155
          0.06539300084114075 0.7712849974632263 -0.6331220269203186 0.14588400721549988 -0.9481220245361328 0.28245800733566284
          -0.20185400545597076 -0.9579409956932068 0.2039709985256195 0.24221499264240265 0.05335899814963341 -0.9687539935112
          0.3601430058479309 0.005537000019103289 -0.9328809976577759 0.4997580051422119 -0.03179899975657463 -0.8655809760093689
          0.3596400022506714 -0.8313379883766174 -0.4237169921398163 -0.10624299943447113 0.4994550049304962 0.8597999811172485
          -0.1190359964966774 -0.13209299743175507 0.984063982963562 -0.020576000213623047 0.9387450218200684 0.3439989984035492
          -0.06455499678850174 -0.6893140077590942 0.721580982208252 0.1882070004940033 0.8195369839668274 -0.541238009929657
          0.02424599975347519 -0.9682729840278625 0.24871599674224854 -0.08470200002193451 -0.38309600949287415 -0.9198169708251953
          0.3316659927368164 -0.17336300015449524 -0.9273309707641602 -0.06339699774980545 -0.7548549771308899 -0.6528199911117554
          0.17365500330924988 -0.8359310030937195 -0.5206379890441895 -0.07139699906110764 0.002686999971047044 -0.9974439740180969
          0.09087999910116196 0.3604919910430908 -0.9283249974250793 -0.04567199945449829 0.6000570058822632 0.7986519932746887
          0.04900899901986122 -0.041443999856710434 0.9979379773139954 -0.03352599963545799 0.9583709836006165 0.28355100750923157
          0.14204099774360657 -0.6312339901924133 0.7624750137329102 0.24252599477767944 0.8823429942131042 -0.4032999873161316
          0.22957900166511536 -0.926816999912262 0.29715999960899353 0.5641099810600281 0.17719300091266632 -0.8064630031585693
          0.362309992313385 -0.8635540008544922 -0.35072100162506104 0.34034499526023865 -0.05765699967741966 -0.9385309815406799
          0.5624420046806335 -0.062410999089479446 -0.8244779706001282 0.26507699489593506 0.08728999644517899 -0.9602680206298828
          0.4731909930706024 -0.26851800084114075 -0.8390399813652039 -0.2985979914665222 0.6582679748535156 0.6910300254821777
          -0.3372670114040375 0.02141599915921688 0.9411649703979492 -0.22021299600601196 0.9511020183563232 0.2165910005569458
          -0.291595995426178 -0.6452190279960632 0.7061619758605957 -0.044537000358104706 0.9170240163803101 -0.39633798599243164
          -0.19638000428676605 -0.9528809785842896 0.23119999468326569 0.17151400446891785 0.38061100244522095 -0.9086899757385254
          -0.08587200194597244 -0.9109979867935181 -0.40337198972702026 0.1855749934911728 -0.022871999070048332 -0.9823639988899231
          0.06792999804019928 -0.38759300112724304 -0.9193239808082581 -0.8829709887504578 0.4131090044975281 0.2229429930448532
          -0.9660469889640808 0.033594001084566116 0.2561750113964081 -0.7923319935798645 0.6100749969482422 0.004368999972939491
          -0.9492340087890625 -0.28731098771095276 0.12808600068092346 -0.762220025062561 0.5548650026321411 -0.33338698744773865
          -0.9058870077133179 -0.41988998651504517 -0.055337999016046524 -0.7649549841880798 0.2698020040988922 -0.5848510265350342
          -0.8670160174369812 -0.38979700207710266 -0.3103890120983124 -0.7752000093460083 0.03031199984252453 -0.6309880018234253
          -0.8167440295219421 -0.18023499846458435 -0.5481280088424683 -0.9838489890098572 0.047623999416828156 -0.17254699766635895
          0.8149830102920532 0.2071329951286316 0.5412009954452515 0.7770490050315857 -0.09929999709129333 0.6215590238571167
          0.9500920176506042 -0.21163399517536163 0.22920900583267212 0.1980540007352829 0.5374869704246521 0.8196849822998047
          0.07039900124073029 -0.06861899793148041 0.9951559901237488 0.8751770257949829 0.3701460063457489 0.31154000759124756
          0.3083209991455078 0.8864820003509521 0.34509098529815674 0.7709879875183105 -0.4185130000114441 0.4800249934196472
          0.05452499911189079 -0.6565840244293213 0.7522799968719482 0.9296450018882751 0.36824700236320496 0.01244799979031086
          0.9602059721946716 0.1842229962348938 -0.2099200040102005 0.9575340151786804 -0.1232919991016388 -0.26062899827957153
          0.9092239737510681 -0.3962259888648987 -0.12773500382900238 0.8539919853210449 -0.5168240070343018 0.05992500111460686
          0.8062080144882202 -0.5379700064659119 0.24620600044727325 -0.11272499710321426 0.48538801074028015 0.867002010345459
          -0.2311049997806549 -0.14384900033473969 0.9622359871864319 0.022803999483585358 0.9335910081863403 0.3576129972934723
          -0.253697007894516 -0.6901599764823914 0.6777290105819702 0.35666799545288086 0.8326169848442078 -0.4237169921398163
          0.06525000184774399 0.7713279724121094 -0.6330839991569519 0.14597199857234955 -0.9480860233306885 0.2825320065021515
          -0.2020449936389923 -0.9579070210456848 0.20394299924373627 0.2420639991760254 0.053261999040842056 -0.9687970280647278
          0.360276997089386 0.005648000165820122 -0.9328280091285706 0.49984800815582275 -0.03185399994254112 -0.8655279874801636
          0.35957199335098267 -0.831305980682373 -0.4238390028476715 -0.10620900243520737 0.49921199679374695 0.8599460124969482
          -0.11896099895238876 -0.13220100104808807 0.9840589761734009 -0.020486000925302505 0.9387450218200684 0.3440040051937103
          -0.06452900171279907 -0.6891660094261169 0.7217249870300293 0.18841099739074707 0.8196669816970825 -0.5409680008888245
          0.024277999997138977 -0.968267023563385 0.2487349957227707 -0.08488299697637558 -0.38298499584198 -0.9198459982872009
          0.3319309949874878 -0.17305399477481842 -0.9272940158843994 -0.06339900195598602 -0.754718005657196 -0.6529790163040161
          0.1736450046300888 -0.8360059857368469 -0.5205209851264954 -0.07143600285053253 0.0027699999045580626 -0.9974409937858582
          0.09099499881267548 0.36058399081230164 -0.9282770156860352 -0.04570300132036209 0.5998610258102417 0.7987980246543884
          0.048962000757455826 -0.041544001549482346 0.9979360103607178 -0.03334200009703636 0.9583420157432556 0.28367000818252563
          0.14215600490570068 -0.6311219930648804 0.7625460028648376 0.24255099892616272 0.8824399709701538 -0.4030750095844269
          0.22965699434280396 -0.9267680048942566 0.2972530126571655 0.5640850067138672 0.17759500443935394 -0.8063920140266418
          0.36235201358795166 -0.8636239767074585 -0.350504994392395 0.3405359983444214 -0.057665999978780746 -0.9384610056877136
          0.5624729990959167 -0.06232700124382973 -0.8244630098342896 0.26517799496650696 0.08710400015115738 -0.9602569937705994
          0.4733000099658966 -0.2687090039253235 -0.8389179706573486 -0.2986220121383667 0.6579130291938782 0.6913579702377319
          -0.3374060094356537 0.021436000242829323 0.9411150217056274 -0.22007200121879578 0.9510679841041565 0.21688100695610046
          -0.29149600863456726 -0.6451169848442078 0.7062960267066956 -0.04467799887061119 0.9170100092887878 -0.39635300636291504
          -0.1963379979133606 -0.9528830051422119 0.23122699558734894 0.1711679995059967 0.3807869851589203 -0.9086819887161255
          -0.0856809988617897 -0.9110329747200012 -0.40333399176597595 0.18560199439525604 -0.022450000047683716 -0.982367992401123
          0.06842999905347824 -0.3872910141944885 -0.9194149971008301 -0.8830710053443909 0.4126879870891571 0.22332699596881866
          -0.9659969806671143 0.03370999917387962 0.25634801387786865 -0.7924110293388367 0.6099709868431091 0.004505999851971865
          -0.9493020176887512 -0.2871200144290924 0.12801800668239594 -0.7622159719467163 0.5547890067100525 -0.33351999521255493
          -0.9058399796485901 -0.4199729859828949 -0.05546500161290169 -0.764985978603363 0.26966598629951477 -0.5848730206489563
          -0.8670390248298645 -0.3899120092391968 -0.31018099188804626 -0.7750329971313477 0.030803000554442406 -0.6311699748039246
          -0.8166890144348145 -0.17989499866962433 -0.548321008682251 -0.9838449954986572 0.04761900007724762 -0.1725739985704422
          0.8287310004234314 0.20295800268650055 0.5215489864349365 0.7941179871559143 -0.0893160030245781 0.6011649966239929
          0.9554449915885925 -0.1919119954109192 0.224263995885849 0.2275869995355606 0.5299630165100098 0.816910982131958