<?xml version="1.0"?>
<VTKFile type="PolyData" version="0.1" byte_order="LittleEndian" header_type="UInt32" compressor="vtkZLibDataCompressor">
  <PolyData>
    <Piece NumberOfPoints="200" NumberOfVerts="0" NumberOfLines="0" NumberOfStrips="0" NumberOfPolys="58">
      <PointData Normals="Normals" TCoords="TCoords">
        <DataArray type="Float32" Name="Normals" NumberOfComponents="3" format="ascii" RangeMin="1" RangeMax="1.0000000250926921">
          1 0 0 1 0 0
          0.9510565400123596 0 -0.30901700258255005 0.9510565400123596 0 -0.30901700258255005
          0.80901700258255 0 -0.5877852439880371 0.80901700258255 0 -0.5877852439880371
          0.5877852439880371 0 -0.80901700258255 0.5877852439880371 0 -0.80901700258255
          0.30901700258255005 0 -0.9510565400123596 0.30901700258255005 0 -0.9510565400123596
          -2.051034342365199e-10 0 -1 -2.051034342365199e-10 0 -1
          -0.30901700258255005 0 -0.9510565400123596 -0.30901700258255005 0 -0.9510565400123596
          -0.5877852439880371 0 -0.80901700258255 -0.5877852439880371 0 -0.80901700258255
          -0.80901700258255 0 -0.5877852439880371 -0.80901700258255 0 -0.5877852439880371
          -0.9510565400123596 0 -0.30901700258255005 -0.9510565400123596 0 -0.30901700258255005
          -1 0 4.102068684730398e-10 -1 0 4.102068684730398e-10
          -0.9510565400123596 0 0.30901700258255005 -0.9510565400123596 0 0.30901700258255005
          -0.80901700258255 0 0.5877852439880371 -0.80901700258255 0 0.5877852439880371
          -0.5877852439880371 0 0.80901700258255 -0.5877852439880371 0 0.80901700258255
          -0.30901700258255005 0 0.9510565400123596 -0.30901700258255005 0 0.9510565400123596
          6.153103027095597e-10 0 1 6.153103027095597e-10 0 1
          0.30901700258255005 0 0.9510565400123596 0.30901700258255005 0 0.9510565400123596
          0.5877852439880371 0 0.80901700258255 0.5877852439880371 0 0.80901700258255
          0.80901700258255 0 0.5877852439880371 0.80901700258255 0 0.5877852439880371
          0.9510565400123596 0 0.30901700258255005 0.9510565400123596 0 0.30901700258255005
          0 1 0 0 1 0
          0 1 0 0 1 0
          0 1 0 0 1 0
          0 1 0 0 1 0
          0 1 0 0 1 0
          0 1 0 0 1 0
          0 1 0 0 1 0
          0 1 0 0 1 0
          0 1 0 0 1 0
          0 1 0 0 1 0
          0 -1 0 0 -1 0
          0 -1 0 0 -1 0
          0 -1 0 0 -1 0
          0 -1 0 0 -1 0
          0 -1 0 0 -1 0
          0 -1 0 0 -1 0
          0 -1 0 0 -1 0
          0 -1 0 0 -1 0
          0 -1 0 0 -1 0
          0 -1 0 0 -1 0
          1 0 0 1 0 0
          0.80901700258255 0 -0.5877852439880371 0.80901700258255 0 -0.5877852439880371
          0.30901700258255005 0 -0.9510565400123596 0.30901700258255005 0 -0.9510565400123596
          -0.30901700258255005 0 -0.9510565400123596 -0.30901700258255005 0 -0.9510565400123596
          -0.80901700258255 0 -0.5877852439880371 -0.80901700258255 0 -0.5877852439880371
          -1 0 4.102068684730398e-10 -1 0 4.102068684730398e-10
          -0.80901700258255 0 0.5877852439880371 -0.80901700258255 0 0.5877852439880371
          -0.30901700258255005 0 0.9510565400123596 -0.30901700258255005 0 0.9510565400123596
          0.30901700258255005 0 0.9510565400123596 0.30901700258255005 0 0.9510565400123596
          0.80901700258255 0 0.5877852439880371 0.80901700258255 0 0.5877852439880371
          0 1 0 0 1 0
          0 1 0 0 1 0
          0 1 0 0 1 0
          0 1 0 0 1 0
          0 1 0 0 1 0
          0 -1 0 0 -1 0
          0 -1 0 0 -1 0
          0 -1 0 0 -1 0
          0 -1 0 0 -1 0
          0 -1 0 0 -1 0
          1 0 0 1 0 0
          0.80901700258255 0 -0.5877852439880371 0.80901700258255 0 -0.5877852439880371
          0.30901700258255005 0 -0.9510565400123596 0.30901700258255005 0 -0.9510565400123596
          -0.30901700258255005 0 -0.9510565400123596 -0.30901700258255005 0 -0.9510565400123596
          -0.80901700258255 0 -0.5877852439880371 -0.80901700258255 0 -0.5877852439880371
          -1 0 4.102068684730398e-10 -1 0 4.102068684730398e-10
          -0.80901700258255 0 0.5877852439880371 -0.80901700258255 0 0.5877852439880371
          -0.30901700258255005 0 0.9510565400123596 -0.30901700258255005 0 0.9510565400123596
          0.30901700258255005 0 0.9510565400123596 0.30901700258255005 0 0.9510565400123596
          0.80901700258255 0 0.5877852439880371 0.80901700258255 0 0.5877852439880371
          0 1 0 0 1 0
          0 1 0 0 1 0
          0 1 0 0 1 0
          0 1 0 0 1 0
          0 1 0 0 1 0
          0 -1 0 0 -1 0
          0 -1 0 0 -1 0
          0 -1 0 0 -1 0
          0 -1 0 0 -1 0
          0 -1 0 0 -1 0
          1 0 0 1 0 0
          0.80901700258255 0.5877852439880371 -1.3051454228208683e-16 0.80901700258255 0.5877852439880371 -1.3051454228208683e-16
          0.30901700258255005 0.9510565400123596 -2.1117697368841162e-16 0.30901700258255005 0.9510565400123596 -2.1117697368841162e-16
          -0.30901700258255005 0.9510565400123596 -2.1117697368841162e-16 -0.30901700258255005 0.9510565400123596 -2.1117697368841162e-16
          -0.80901700258255 0.5877852439880371 -1.3051454228208683e-16 -0.80901700258255 0.5877852439880371 -1.3051454228208683e-16
          -1 -4.102068684730398e-10 9.10842220476304e-26 -1 -4.102068684730398e-10 9.10842220476304e-26
          -0.80901700258255 -0.5877852439880371 1.3051454228208683e-16 -0.80901700258255 -0.5877852439880371 1.3051454228208683e-16
          -0.30901700258255005 -0.9510565400123596 2.1117697368841162e-16 -0.30901700258255005 -0.9510565400123596 2.1117697368841162e-16
          0.30901700258255005 -0.9510565400123596 2.1117697368841162e-16 0.30901700258255005 -0.9510565400123596 2.1117697368841162e-16
          0.80901700258255 -0.5877852439880371 1.3051454228208683e-16 0.80901700258255 -0.5877852439880371 1.3051454228208683e-16
          0 2.220446049250313e-16 1 0 2.220446049250313e-16 1
          0 2.220446049250313e-16 1 0 2.220446049250313e-16 1
          0 2.220446049250313e-16 1 0 2.220446049250313e-16 1
          0 2.220446049250313e-16 1 0 2.220446049250313e-16 1
          0 2.220446049250313e-16 1 0 2.220446049250313e-16 1
          0 -2.220446049250313e-16 -1 0 -2.220446049250313e-16 -1
          0 -2.220446049250313e-16 -1 0 -2.220446049250313e-16 -1
          0 -2.220446049250313e-16 -1 0 -2.220446049250313e-16 -1
          0 -2.220446049250313e-16 -1 0 -2.220446049250313e-16 -1
          0 -2.220446049250313e-16 -1 0 -2.220446049250313e-16 -1
          <InformationKey name="L2_NORM_RANGE" location="vtkDataArray" length="2">
            <Value index="0">
              1
            </Value>
            <Value index="1">
              1.0000000251
            </Value>
          </InformationKey>
        </DataArray>
        <DataArray type="Float32" Name="TCoords" NumberOfComponents="2" format="ascii" RangeMin="0" RangeMax="1.4142135623730951">
          1 0 1 1 0.8999999761581421 0
          0.8999999761581421 1 0.800000011920929 0 0.800000011920929 1
          0.699999988079071 0 0.699999988079071 1 0.6000000238418579 0
          0.6000000238418579 1 0.5 0 0.5 1
          0.4000000059604645 0 0.4000000059604645 1 0.30000001192092896 0
          0.30000001192092896 1 0.20000000298023224 0 0.20000000298023224 1
          0.10000000149011612 0 0.10000000149011612 1 0 0
          0 1 0.10000000149011612 0 0.10000000149011612 1
          0.20000000298023224 0 0.20000000298023224 1 0.30000001192092896 0
          0.30000001192092896 1 0.4000000059604645 0 0.4000000059604645 1
          0.5 0 0.5 1 0.6000000238418579 0
          0.6000000238418579 1 0.699999988079071 0 0.699999988079071 1
          0.800000011920929 0 0.800000011920929 1 0.8999999761581421 0
          0.8999999761581421 1 0.07500000298023224 0 0.07132923603057861 -0.023176275193691254
          0.060676272958517075 -0.04408389329910278 0.04408389329910278 -0.060676272958517075 0.023176275193691254 -0.07132923603057861
          -1.538275756773899e-11 -0.07500000298023224 -0.023176275193691254 -0.07132923603057861 -0.04408389329910278 -0.060676272958517075
          -0.060676272958517075 -0.04408389329910278 -0.07132923603057861 -0.023176275193691254 -0.07500000298023224 3.076551513547798e-11
          -0.07132923603057861 0.023176275193691254 -0.060676272958517075 0.04408389329910278 -0.04408389329910278 0.060676272958517075
          -0.023176275193691254 0.07132923603057861 4.6148272703216975e-11 0.07500000298023224 0.023176275193691254 0.07132923603057861
          0.04408389329910278 0.060676272958517075 0.060676272958517075 0.04408389329910278 0.07132923603057861 0.023176275193691254
          0.07132923603057861 0.023176275193691254 0.060676272958517075 0.04408389329910278 0.04408389329910278 0.060676272958517075
          0.023176275193691254 0.07132923603057861 4.6148272703216975e-11 0.07500000298023224 -0.023176275193691254 0.07132923603057861
          -0.04408389329910278 0.060676272958517075 -0.060676272958517075 0.04408389329910278 -0.07132923603057861 0.023176275193691254
          -0.07500000298023224 3.076551513547798e-11 -0.07132923603057861 -0.023176275193691254 -0.060676272958517075 -0.04408389329910278
          -0.04408389329910278 -0.060676272958517075 -0.023176275193691254 -0.07132923603057861 -1.538275756773899e-11 -0.07500000298023224
          0.023176275193691254 -0.07132923603057861 0.04408389329910278 -0.060676272958517075 0.060676272958517075 -0.04408389329910278
          0.07132923603057861 -0.023176275193691254 0.07500000298023224 0 1 0
          1 1 0.800000011920929 0 0.800000011920929 1
          0.6000000238418579 0 0.6000000238418579 1 0.4000000059604645 0
          0.4000000059604645 1 0.20000000298023224 0 0.20000000298023224 1
          0 0 0 1 0.20000000298023224 0
          0.20000000298023224 1 0.4000000059604645 0 0.4000000059604645 1
          0.6000000238418579 0 0.6000000238418579 1 0.800000011920929 0
          0.800000011920929 1 0.009999999776482582 0 0.008090170100331306 -0.005877852439880371
          0.0030901699792593718 -0.009510565549135208 -0.0030901699792593718 -0.009510565549135208 -0.008090170100331306 -0.005877852439880371
          -0.009999999776482582 4.10206851125805e-12 -0.008090170100331306 0.005877852439880371 -0.0030901699792593718 0.009510565549135208
          0.0030901699792593718 0.009510565549135208 0.008090170100331306 0.005877852439880371 0.008090170100331306 0.005877852439880371
          0.0030901699792593718 0.009510565549135208 -0.0030901699792593718 0.009510565549135208 -0.008090170100331306 0.005877852439880371
          -0.009999999776482582 4.10206851125805e-12 -0.008090170100331306 -0.005877852439880371 -0.0030901699792593718 -0.009510565549135208
          0.0030901699792593718 -0.009510565549135208 0.008090170100331306 -0.005877852439880371 0.009999999776482582 0
          1 0 1 1 0.800000011920929 0
          0.800000011920929 1 0.6000000238418579 0 0.6000000238418579 1
          0.4000000059604645 0 0.4000000059604645 1 0.20000000298023224 0
          0.20000000298023224 1 0 0 0 1
          0.20000000298023224 0 0.20000000298023224 1 0.4000000059604645 0
          0.4000000059604645 1 0.6000000238418579 0 0.6000000238418579 1
          0.800000011920929 0 0.800000011920929 1 0.009999999776482582 0
          0.008090170100331306 -0.005877852439880371 0.0030901699792593718 -0.009510565549135208 -0.0030901699792593718 -0.009510565549135208
          -0.008090170100331306 -0.005877852439880371 -0.009999999776482582 4.10206851125805e-12 -0.008090170100331306 0.005877852439880371
          -0.0030901699792593718 0.009510565549135208 0.0030901699792593718 0.009510565549135208 0.008090170100331306 0.005877852439880371
          0.008090170100331306 0.005877852439880371 0.0030901699792593718 0.009510565549135208 -0.0030901699792593718 0.009510565549135208
          -0.008090170100331306 0.005877852439880371 -0.009999999776482582 4.10206851125805e-12 -0.008090170100331306 -0.005877852439880371
          -0.0030901699792593718 -0.009510565549135208 0.0030901699792593718 -0.009510565549135208 0.008090170100331306 -0.005877852439880371
          0.009999999776482582 0 1 0 1 1
          0.800000011920929 0 0.800000011920929 1 0.6000000238418579 0
          0.6000000238418579 1 0.4000000059604645 0 0.4000000059604645 1
          0.20000000298023224 0 0.20000000298023224 1 0 0
          0 1 0.20000000298023224 0 0.20000000298023224 1
          0.4000000059604645 0 0.4000000059604645 1 0.6000000238418579 0
          0.6000000238418579 1 0.800000011920929 0 0.800000011920929 1
          0.009999999776482582 0 0.008090170100331306 -0.005877852439880371 0.0030901699792593718 -0.009510565549135208
          -0.0030901699792593718 -0.009510565549135208 -0.008090170100331306 -0.005877852439880371 -0.009999999776482582 4.10206851125805e-12
          -0.008090170100331306 0.005877852439880371 -0.0030901699792593718 0.009510565549135208 0.0030901699792593718 0.009510565549135208
          0.008090170100331306 0.005877852439880371 0.008090170100331306 0.005877852439880371 0.0030901699792593718 0.009510565549135208
          -0.0030901699792593718 0.009510565549135208 -0.008090170100331306 0.005877852439880371 -0.009999999776482582 4.10206851125805e-12
          -0.008090170100331306 -0.005877852439880371 -0.0030901699792593718 -0.009510565549135208 0.0030901699792593718 -0.009510565549135208
          0.008090170100331306 -0.005877852439880371 0.009999999776482582 0
          <InformationKey name="L2_NORM_RANGE" location="vtkDataArray" length="2">
            <Value index="0">
              0
            </Value>
            <Value index="1">
              1.4142135624
            </Value>
          </InformationKey>
        </DataArray>
      </PointData>
      <CellData>
      </CellData>
      <Points>
        <DataArray type="Float32" Name="Array 0D1DBA58" NumberOfComponents="3" format="ascii" RangeMin="0.05557541394368377" RangeMax="0.1677051049764861">
          0.07500000298023224 -0.05000000074505806 0 0.07500000298023224 -0.15000000596046448 0
          0.07132923603057861 -0.05000000074505806 -0.023176275193691254 0.07132923603057861 -0.15000000596046448 -0.023176275193691254
          0.060676272958517075 -0.05000000074505806 -0.04408389329910278 0.060676272958517075 -0.15000000596046448 -0.04408389329910278
          0.04408389329910278 -0.05000000074505806 -0.060676272958517075 0.04408389329910278 -0.15000000596046448 -0.060676272958517075
          0.023176275193691254 -0.05000000074505806 -0.07132923603057861 0.023176275193691254 -0.15000000596046448 -0.07132923603057861
          -1.538275756773899e-11 -0.05000000074505806 -0.07500000298023224 -1.538275756773899e-11 -0.15000000596046448 -0.07500000298023224
          -0.023176275193691254 -0.05000000074505806 -0.07132923603057861 -0.023176275193691254 -0.15000000596046448 -0.07132923603057861
          -0.04408389329910278 -0.05000000074505806 -0.060676272958517075 -0.04408389329910278 -0.15000000596046448 -0.060676272958517075
          -0.060676272958517075 -0.05000000074505806 -0.04408389329910278 -0.060676272958517075 -0.15000000596046448 -0.04408389329910278
          -0.07132923603057861 -0.05000000074505806 -0.023176275193691254 -0.07132923603057861 -0.15000000596046448 -0.023176275193691254
          -0.07500000298023224 -0.05000000074505806 3.076551513547798e-11 -0.07500000298023224 -0.15000000596046448 3.076551513547798e-11
          -0.07132923603057861 -0.05000000074505806 0.023176275193691254 -0.07132923603057861 -0.15000000596046448 0.023176275193691254
          -0.060676272958517075 -0.05000000074505806 0.04408389329910278 -0.060676272958517075 -0.15000000596046448 0.04408389329910278
          -0.04408389329910278 -0.05000000074505806 0.060676272958517075 -0.04408389329910278 -0.15000000596046448 0.060676272958517075
          -0.023176275193691254 -0.05000000074505806 0.07132923603057861 -0.023176275193691254 -0.15000000596046448 0.07132923603057861
          4.6148272703216975e-11 -0.05000000074505806 0.07500000298023224 4.6148272703216975e-11 -0.15000000596046448 0.07500000298023224
          0.023176275193691254 -0.05000000074505806 0.07132923603057861 0.023176275193691254 -0.15000000596046448 0.07132923603057861
          0.04408389329910278 -0.05000000074505806 0.060676272958517075 0.04408389329910278 -0.15000000596046448 0.060676272958517075
          0.060676272958517075 -0.05000000074505806 0.04408389329910278 0.060676272958517075 -0.15000000596046448 0.04408389329910278
          0.07132923603057861 -0.05000000074505806 0.023176275193691254 0.07132923603057861 -0.15000000596046448 0.023176275193691254
          0.07500000298023224 -0.05000000074505806 0 0.07132923603057861 -0.05000000074505806 -0.023176275193691254
          0.060676272958517075 -0.05000000074505806 -0.04408389329910278 0.04408389329910278 -0.05000000074505806 -0.060676272958517075
          0.023176275193691254 -0.05000000074505806 -0.07132923603057861 -1.538275756773899e-11 -0.05000000074505806 -0.07500000298023224
          -0.023176275193691254 -0.05000000074505806 -0.07132923603057861 -0.04408389329910278 -0.05000000074505806 -0.060676272958517075
          -0.060676272958517075 -0.05000000074505806 -0.04408389329910278 -0.07132923603057861 -0.05000000074505806 -0.023176275193691254
          -0.07500000298023224 -0.05000000074505806 3.076551513547798e-11 -0.07132923603057861 -0.05000000074505806 0.023176275193691254
          -0.060676272958517075 -0.05000000074505806 0.04408389329910278 -0.04408389329910278 -0.05000000074505806 0.060676272958517075
          -0.023176275193691254 -0.05000000074505806 0.07132923603057861 4.6148272703216975e-11 -0.05000000074505806 0.07500000298023224
          0.023176275193691254 -0.05000000074505806 0.07132923603057861 0.04408389329910278 -0.05000000074505806 0.060676272958517075
          0.060676272958517075 -0.05000000074505806 0.04408389329910278 0.07132923603057861 -0.05000000074505806 0.023176275193691254
          0.07132923603057861 -0.15000000596046448 0.023176275193691254 0.060676272958517075 -0.15000000596046448 0.04408389329910278
          0.04408389329910278 -0.15000000596046448 0.060676272958517075 0.023176275193691254 -0.15000000596046448 0.07132923603057861
          4.6148272703216975e-11 -0.15000000596046448 0.07500000298023224 -0.023176275193691254 -0.15000000596046448 0.07132923603057861
          -0.04408389329910278 -0.15000000596046448 0.060676272958517075 -0.060676272958517075 -0.15000000596046448 0.04408389329910278
          -0.07132923603057861 -0.15000000596046448 0.023176275193691254 -0.07500000298023224 -0.15000000596046448 3.076551513547798e-11
          -0.07132923603057861 -0.15000000596046448 -0.023176275193691254 -0.060676272958517075 -0.15000000596046448 -0.04408389329910278
          -0.04408389329910278 -0.15000000596046448 -0.060676272958517075 -0.023176275193691254 -0.15000000596046448 -0.07132923603057861
          -1.538275756773899e-11 -0.15000000596046448 -0.07500000298023224 0.023176275193691254 -0.15000000596046448 -0.07132923603057861
          0.04408389329910278 -0.15000000596046448 -0.060676272958517075 0.060676272958517075 -0.15000000596046448 -0.04408389329910278
          0.07132923603057861 -0.15000000596046448 -0.023176275193691254 0.07500000298023224 -0.15000000596046448 0
          0.009999999776482582 7.450580707946131e-10 -0.06499999761581421 0.009999999776482582 -0.10000000149011612 -0.06499999761581421
          0.008090170100331306 7.450580707946131e-10 -0.07087785005569458 0.008090170100331306 -0.10000000149011612 -0.07087785005569458
          0.0030901699792593718 7.450580707946131e-10 -0.07451056689023972 0.0030901699792593718 -0.10000000149011612 -0.07451056689023972
          -0.0030901699792593718 7.450580707946131e-10 -0.07451056689023972 -0.0030901699792593718 -0.10000000149011612 -0.07451056689023972
          -0.008090170100331306 7.450580707946131e-10 -0.07087785005569458 -0.008090170100331306 -0.10000000149011612 -0.07087785005569458
          -0.009999999776482582 7.450580707946131e-10 -0.06499999761581421 -0.009999999776482582 -0.10000000149011612 -0.06499999761581421
          -0.008090170100331306 7.450580707946131e-10 -0.059122148901224136 -0.008090170100331306 -0.10000000149011612 -0.059122148901224136
          -0.0030901699792593718 7.450580707946131e-10 -0.0554894357919693 -0.0030901699792593718 -0.10000000149011612 -0.0554894357919693
          0.0030901699792593718 7.450580707946131e-10 -0.0554894357919693 0.0030901699792593718 -0.10000000149011612 -0.0554894357919693
          0.008090170100331306 7.450580707946131e-10 -0.059122148901224136 0.008090170100331306 -0.10000000149011612 -0.059122148901224136
          0.009999999776482582 7.450580707946131e-10 -0.06499999761581421 0.008090170100331306 7.450580707946131e-10 -0.07087785005569458
          0.0030901699792593718 7.450580707946131e-10 -0.07451056689023972 -0.0030901699792593718 7.450580707946131e-10 -0.07451056689023972
          -0.008090170100331306 7.450580707946131e-10 -0.07087785005569458 -0.009999999776482582 7.450580707946131e-10 -0.06499999761581421
          -0.008090170100331306 7.450580707946131e-10 -0.059122148901224136 -0.0030901699792593718 7.450580707946131e-10 -0.0554894357919693
          0.0030901699792593718 7.450580707946131e-10 -0.0554894357919693 0.008090170100331306 7.450580707946131e-10 -0.059122148901224136
          0.008090170100331306 -0.10000000149011612 -0.059122148901224136 0.0030901699792593718 -0.10000000149011612 -0.0554894357919693
          -0.0030901699792593718 -0.10000000149011612 -0.0554894357919693 -0.008090170100331306 -0.10000000149011612 -0.059122148901224136
          -0.009999999776482582 -0.10000000149011612 -0.06499999761581421 -0.008090170100331306 -0.10000000149011612 -0.07087785005569458
          -0.0030901699792593718 -0.10000000149011612 -0.07451056689023972 0.0030901699792593718 -0.10000000149011612 -0.07451056689023972
          0.008090170100331306 -0.10000000149011612 -0.07087785005569458 0.009999999776482582 -0.10000000149011612 -0.06499999761581421
          0.009999999776482582 7.450580707946131e-10 0.06499999761581421 0.009999999776482582 -0.10000000149011612 0.06499999761581421
          0.008090170100331306 7.450580707946131e-10 0.059122148901224136 0.008090170100331306 -0.10000000149011612 0.059122148901224136
          0.0030901699792593718 7.450580707946131e-10 0.0554894357919693 0.0030901699792593718 -0.10000000149011612 0.0554894357919693
          -0.0030901699792593718 7.450580707946131e-10 0.0554894357919693 -0.0030901699792593718 -0.10000000149011612 0.0554894357919693
          -0.008090170100331306 7.450580707946131e-10 0.059122148901224136 -0.008090170100331306 -0.10000000149011612 0.059122148901224136
          -0.009999999776482582 7.450580707946131e-10 0.06499999761581421 -0.009999999776482582 -0.10000000149011612 0.06499999761581421
          -0.008090170100331306 7.450580707946131e-10 0.07087785005569458 -0.008090170100331306 -0.10000000149011612 0.07087785005569458
          -0.0030901699792593718 7.450580707946131e-10 0.07451056689023972 -0.0030901699792593718 -0.10000000149011612 0.07451056689023972
          0.0030901699792593718 7.450580707946131e-10 0.07451056689023972 0.0030901699792593718 -0.10000000149011612 0.07451056689023972
          0.008090170100331306 7.450580707946131e-10 0.07087785005569458 0.008090170100331306 -0.10000000149011612 0.07087785005569458
          0.009999999776482582 7.450580707946131e-10 0.06499999761581421 0.008090170100331306 7.450580707946131e-10 0.059122148901224136
          0.0030901699792593718 7.450580707946131e-10 0.0554894357919693 -0.0030901699792593718 7.450580707946131e-10 0.0554894357919693
          -0.008090170100331306 7.450580707946131e-10 0.059122148901224136 -0.009999999776482582 7.450580707946131e-10 0.06499999761581421
          -0.008090170100331306 7.450580707946131e-10 0.07087785005569458 -0.0030901699792593718 7.450580707946131e-10 0.07451056689023972
          0.0030901699792593718 7.450580707946131e-10 0.07451056689023972 0.008090170100331306 7.450580707946131e-10 0.07087785005569458
          0.008090170100331306 -0.10000000149011612 0.07087785005569458 0.0030901699792593718 -0.10000000149011612 0.07451056689023972
          -0.0030901699792593718 -0.10000000149011612 0.07451056689023972 -0.008090170100331306 -0.10000000149011612 0.07087785005569458
          -0.009999999776482582 -0.10000000149011612 0.06499999761581421 -0.008090170100331306 -0.10000000149011612 0.059122148901224136
          -0.0030901699792593718 -0.10000000149011612 0.0554894357919693 0.0030901699792593718 -0.10000000149011612 0.0554894357919693
          0.008090170100331306 -0.10000000149011612 0.059122148901224136 0.009999999776482582 -0.10000000149011612 0.06499999761581421
          0.009999999776482582 7.450580707946131e-10 0.07500000298023224 0.009999999776482582 7.450580707946131e-10 -0.07500000298023224
          0.008090170100331306 0.005877853371202946 0.07500000298023224 0.008090170100331306 0.005877853371202946 -0.07500000298023224
          0.0030901699792593718 0.009510566480457783 0.07500000298023224 0.0030901699792593718 0.009510566480457783 -0.07500000298023224
          -0.0030901699792593718 0.009510566480457783 0.07500000298023224 -0.0030901699792593718 0.009510566480457783 -0.07500000298023224
          -0.008090170100331306 0.005877853371202946 0.07500000298023224 -0.008090170100331306 0.005877853371202946 -0.07500000298023224
          -0.009999999776482582 7.450580707946131e-10 0.07500000298023224 -0.009999999776482582 7.450580707946131e-10 -0.07500000298023224
          -0.008090170100331306 -0.0058778515085577965 0.07500000298023224 -0.008090170100331306 -0.0058778515085577965 -0.07500000298023224
          -0.0030901699792593718 -0.009510564617812634 0.07500000298023224 -0.0030901699792593718 -0.009510564617812634 -0.07500000298023224
          0.0030901699792593718 -0.009510564617812634 0.07500000298023224 0.0030901699792593718 -0.009510564617812634 -0.07500000298023224
          0.008090170100331306 -0.0058778515085577965 0.07500000298023224 0.008090170100331306 -0.0058778515085577965 -0.07500000298023224
          0.009999999776482582 7.450580707946131e-10 0.07500000298023224 0.008090170100331306 0.005877853371202946 0.07500000298023224
          0.0030901699792593718 0.009510566480457783 0.07500000298023224 -0.0030901699792593718 0.009510566480457783 0.07500000298023224
          -0.008090170100331306 0.005877853371202946 0.07500000298023224 -0.009999999776482582 7.450580707946131e-10 0.07500000298023224
          -0.008090170100331306 -0.0058778515085577965 0.07500000298023224 -0.0030901699792593718 -0.009510564617812634 0.07500000298023224
          0.0030901699792593718 -0.009510564617812634 0.07500000298023224 0.008090170100331306 -0.0058778515085577965 0.07500000298023224
          0.008090170100331306 -0.0058778515085577965 -0.07500000298023224 0.0030901699792593718 -0.009510564617812634 -0.07500000298023224
          -0.0030901699792593718 -0.009510564617812634 -0.07500000298023224 -0.008090170100331306 -0.0058778515085577965 -0.07500000298023224
          -0.009999999776482582 7.450580707946131e-10 -0.07500000298023224 -0.008090170100331306 0.005877853371202946 -0.07500000298023224
          -0.0030901699792593718 0.009510566480457783 -0.07500000298023224 0.0030901699792593718 0.009510566480457783 -0.07500000298023224
          0.008090170100331306 0.005877853371202946 -0.07500000298023224 0.009999999776482582 7.450580707946131e-10 -0.07500000298023224
          <InformationKey name="L2_NORM_RANGE" location="vtkDataArray" length="2">
            <Value index="0">
              0.055575413944
            </Value>
            <Value index="1">
              0.16770510498
            </Value>
          </InformationKey>
        </DataArray>
      </Points>
      <Verts>
        <DataArray type="Int64" Name="connectivity" format="ascii" RangeMin="1e+299" RangeMax="-1e+299">
        </DataArray>
        <DataArray type="Int64" Name="offsets" format="ascii" RangeMin="1e+299" RangeMax="-1e+299">
        </DataArray>
      </Verts>
      <Lines>
        <DataArray type="Int64" Name="connectivity" format="ascii" RangeMin="1e+299" RangeMax="-1e+299">
        </DataArray>
        <DataArray type="Int64" Name="offsets" format="ascii" RangeMin="1e+299" RangeMax="-1e+299">
        </DataArray>
      </Lines>
      <Strips>
        <DataArray type="Int64" Name="connectivity" format="ascii" RangeMin="1e+299" RangeMax="-1e+299">
        </DataArray>
        <DataArray type="Int64" Name="offsets" format="ascii" RangeMin="1e+299" RangeMax="-1e+299">
        </DataArray>
      </Strips>
      <Polys>
        <DataArray type="Int32" Name="connectivity" format="ascii" RangeMin="0" RangeMax="199">
          0 1 3 2 2 3
          5 4 4 5 7 6
          6 7 9 8 8 9
          11 10 10 11 13 12
          12 13 15 14 14 15
          17 16 16 17 19 18
          18 19 21 20 20 21
          23 22 22 23 25 24
          24 25 27 26 26 27
          29 28 28 29 31 30
          30 31 33 32 32 33
          35 34 34 35 37 36
          36 37 39 38 38 39
          1 0 40 41 42 43
          44 45 46 47 48 49
          50 51 52 53 54 55
          56 57 58 59 60 61
          62 63 64 65 66 67
          68 69 70 71 72 73
          74 75 76 77 78 79
          80 81 83 82 82 83
          85 84 84 85 87 86
          86 87 89 88 88 89
          91 90 90 91 93 92
          92 93 95 94 94 95
          97 96 96 97 99 98
          98 99 81 80 100 101
          102 103 104 105 106 107
          108 109 110 111 112 113
          114 115 116 117 118 119
          120 121 123 122 122 123
          125 124 124 125 127 126
          126 127 129 128 128 129
          131 130 130 131 133 132
          132 133 135 134 134 135
          137 136 136 137 139 138
          138 139 121 120 140 141