<?xml version="1.0"?>
<VTKFile type="PolyData" version="0.1" byte_order="LittleEndian" header_type="UInt32" compressor="vtkZLibDataCompressor">
  <PolyData>
    <Piece NumberOfPoints="2408" NumberOfVerts="0" NumberOfLines="0" NumberOfStrips="0" NumberOfPolys="4812">
      <PointData Normals="Normals">
        <DataArray type="Float32" Name="Normals" NumberOfComponents="3" format="ascii" RangeMin="0.9999991845664572" RangeMax="1.0000007551592556">
          0.06991299986839294 0.41682299971580505 0.9062950015068054 0.10970199853181839 0.3716689944267273 0.9218609929084778
          0.173676997423172 0.43980899453163147 0.881138026714325 0.26528400182724 0.3597629964351654 0.894536018371582
          0.024498000741004944 0.39681801199913025 0.9175699949264526 0.07459799945354462 0.41233399510383606 0.9079729914665222
          -0.26507601141929626 0.4626550078392029 0.845982015132904 -0.23504500091075897 0.46599000692367554 0.8529989719390869
          0.029617000371217728 0.44718000292778015 0.8939530253410339 -0.2263219952583313 0.4725480079650879 0.8517490029335022
          0.015654999762773514 0.5301110148429871 0.8477839827537537 0.05085400119423866 0.3276430070400238 0.9434319734573364
          0.07953900098800659 0.15396399796009064 0.9848700165748596 0.08589199930429459 0.2441979944705963 0.9659140110015869
          0.07146800309419632 0.47621798515319824 0.8764179944992065 0.21812599897384644 0.36858099699020386 0.9036419987678528
          0.20546500384807587 0.37775999307632446 0.9028189778327942 0.02700899913907051 0.25299501419067383 0.9670900106430054
          -0.3055579960346222 0.4458079934120178 0.8413619995117188 -0.17605899274349213 0.382533997297287 0.9070119857788086
          -0.07417300343513489 0.48633599281311035 0.8706179857254028 -0.011423000134527683 0.42873701453208923 0.9033570289611816
          -0.05173499882221222 0.43340998888015747 0.8997099995613098 -0.44604501128196716 0.48259401321411133 0.7537549734115601
          -0.4974440038204193 0.4776510000228882 0.724153995513916 -0.4215550124645233 0.5242419838905334 0.7399070262908936
          -0.06123200058937073 0.2885980010032654 0.955489993095398 -0.0958079993724823 0.42869600653648376 0.8983539938926697
          0.07373800128698349 0.30303800106048584 0.9501209855079651 0.02760699950158596 0.34643301367759705 0.9376680254936218
          -0.11545799672603607 0.5769169926643372 0.8086010217666626 0.0893160030245781 0.45346799492836 0.8867859840393066
          0.11473599821329117 0.14257000386714935 0.9831119775772095 0.16360099613666534 0.08198899775743484 0.9831140041351318
          0.19126099348068237 0.03309499844908714 0.9809809923171997 0.11582999676465988 0.3389259874820709 0.9336550235748291
          0.3597869873046875 0.355430006980896 0.8626829981803894 0.14496199786663055 0.3607639968395233 0.9213230013847351
          0.022120999172329903 0.17841100692749023 0.9837070107460022 -0.23054899275302887 0.30431899428367615 0.924248993396759
          -0.1114799976348877 0.18506500124931335 0.9763829708099365 -0.48783600330352783 0.44390299916267395 0.7516419887542725
          -0.5840439796447754 0.47445499897003174 0.6586229801177979 -0.4106520116329193 0.4076650142669678 0.8155819773674011
          -0.3014340102672577 0.467631995677948 0.8309379816055298 0.02187100052833557 0.46017301082611084 0.8875600099563599
          -0.2654379904270172 0.4711669981479645 0.841156005859375 -0.047756001353263855 0.44445401430130005 0.8945279717445374
          -0.6801450252532959 0.45326799154281616 0.5761520266532898 -0.7082629799842834 0.45285600423812866 0.541558027267456
          -0.7103170156478882 0.46294501423835754 0.5302190184593201 -0.4654429852962494 0.4722990095615387 0.7485299706459045
          -0.6833840012550354 0.39541199803352356 0.6137059926986694 0.00761000020429492 0.23643900454044342 0.9716169834136963
          0.02657400071620941 0.09714599698781967 0.9949150085449219 0.015030999667942524 0.14807899296283722 0.9888610243797302
          0.03439699858427048 0.12527400255203247 0.9915260076522827 -0.1598999947309494 0.4566259980201721 0.8751710057258606
          -0.08440300077199936 0.5158889889717102 0.8524870276451111 0.11030600219964981 0.25679099559783936 0.9601519703865051
          0.07839199900627136 0.34451401233673096 0.9355030059814453 -0.18818999826908112 0.5359489917755127 0.8230090141296387
          -0.08730299770832062 0.38590699434280396 0.9183980226516724 0.04410700127482414 0.10953900218009949 0.9930030107498169
          -0.1566929966211319 0.5297020077705383 0.8335850238800049 -0.09325499832630157 0.42109599709510803 0.9022089838981628
          -0.04857200011610985 0.35254400968551636 0.9345340132713318 0.20213299989700317 -0.05756999924778938 0.9776650071144104
          0.3350920081138611 -0.12922699749469757 0.9332810044288635 0.15455999970436096 -0.056056998670101166 0.9863920211791992
          0.307684987783432 -0.09895700216293335 0.9463289976119995 0.41367799043655396 -0.16931499540805817 0.8945410251617432
          0.05366099998354912 0.09254399687051773 0.9942619800567627 0.12683500349521637 0.4312880039215088 0.8932539820671082
          0.323498010635376 0.45945000648498535 0.8271970152854919 0.37143298983573914 0.3171460032463074 0.8726140260696411
          0.3829599916934967 0.2642369866371155 0.8851659893989563 0.43196699023246765 0.3554309904575348 0.8288990259170532
          0.4783110022544861 0.35718101263046265 0.8022720217704773 -0.20076799392700195 0.3206019997596741 0.9256929755210876
          0.10006599873304367 0.2836799919605255 0.9536839723587036 0.0077749998308718204 0.14385299384593964 0.9895679950714111
          -0.04355600103735924 0.17532500624656677 0.9835469722747803 -0.22387899458408356 0.2108359932899475 0.9515389800071716
          -0.38886699080467224 0.3305889964103699 0.8599380254745483 -0.46282899379730225 0.43494001030921936 0.772409975528717
          -0.09519399702548981 0.12904399633407593 0.9870589971542358 -0.1931930035352707 0.18950699269771576 0.9626860022544861
          -0.6356070041656494 0.5420100092887878 0.5497540235519409 -0.6506670117378235 0.4512679874897003 0.6107289791107178
          -0.5672850012779236 0.4677650034427643 0.6777780055999756 -0.764913022518158 0.5215489864349365 0.3780139982700348
          -0.77149897813797 0.4759399890899658 0.42222198843955994 -0.7781990170478821 0.4100399911403656 0.47568199038505554
          -0.28662699460983276 0.4327259957790375 0.8547469973564148 -0.3931429982185364 0.2851429879665375 0.8741469979286194
          -0.9006999731063843 0.31306299567222595 0.3012149930000305 -0.8683649897575378 0.2958810031414032 0.39799201488494873
          -0.8436959981918335 0.42010000348091125 0.3342050015926361 -0.8374950289726257 0.4636499881744385 0.28919100761413574
          -0.7889009714126587 0.5694959759712219 0.23088699579238892 -0.644940972328186 0.2571980059146881 0.7196530103683472
          -0.8896639943122864 0.22693100571632385 0.3962329924106598 0.14111900329589844 0.09727899730205536 0.9852020144462585
          0.08982600271701813 0.08789899945259094 0.9920709729194641 0.06380199640989304 -0.0915450006723404 0.9937549829483032
          0.03820599988102913 -0.14202600717544556 0.9891250133514404 0.15301500260829926 -0.16829299926757812 0.9737880229949951
          0.17413899302482605 -0.033518001437187195 0.9841510057449341 -0.02128800004720688 0.05805300176143646 0.9980859756469727
          0.020778000354766846 -0.028310000896453857 0.9993829727172852 0.034182000905275345 -0.19677500426769257 0.9798529744148254
          0.052278000861406326 -0.05580800026655197 0.9970719814300537 -0.30057600140571594 0.6057810187339783 0.7366700172424316
          -0.40354999899864197 0.43577298521995544 0.8045179843902588 -0.16078999638557434 0.3519099950790405 0.9221199750900269
          -0.09831699728965759 0.650551974773407 0.7530710101127625 0.22071300446987152 0.13864700496196747 0.9654340147972107
          0.340038001537323 0.1609009951353073 0.9265450239181519 0.36509600281715393 0.2818700075149536 0.8872740268707275
          0.33723899722099304 0.3931939899921417 0.8553760051727295 0.13924400508403778 0.490090012550354 0.8604779839515686
          -0.10749199986457825 0.42369401454925537 0.8994050025939941 0.12961499392986298 -0.1319420039653778 0.9827470183372498
          -0.138932004570961 0.6021530032157898 0.7861989736557007 0.04189499840140343 0.46772000193595886 0.8828830122947693
          0.030448000878095627 0.44574299454689026 0.8946430087089539 0.37366101145744324 -0.25156500935554504 0.892799973487854
          0.27079200744628906 -0.28182101249694824 0.9204609990119934 0.5641930103302002 -0.34275200963020325 0.7511370182037354
          0.4770059883594513 -0.3026750087738037 0.8251389861106873 0.3325110077857971 -0.26003000140190125 0.9065430164337158
          0.35992199182510376 -0.36684900522232056 0.8578330278396606 0.19530999660491943 -0.2347940057516098 0.9522209763526917
          0.06915699690580368 -0.024560999125242233 0.9973030090332031 0.0287299994379282 0.06935600191354752 0.9971780180931091
          0.46001800894737244 -0.36926499009132385 0.8074820041656494 0.5750399827957153 -0.4348810017108917 0.6929699778556824
          0.13911999762058258 0.5459669828414917 0.8261749744415283 0.3100839853286743 0.49717798829078674 0.8103470206260681
          0.29325899481773376 0.44149699807167053 0.8479859828948975 0.1479330062866211 0.36096400022506714 0.9207720160484314
          0.3028010129928589 0.3973830044269562 0.8662559986114502 0.30743399262428284 0.42592400312423706 0.8509250283241272
          0.4157960116863251 0.3443169891834259 0.841759979724884 0.3749139904975891 0.4981839954853058 0.7818260192871094
          0.40654799342155457 0.46607500314712524 0.7858070135116577 0.48489800095558167 0.31606701016426086 0.8154609799385071
          0.44168999791145325 0.32002100348472595 0.8381509780883789 -0.33375000953674316 0.24388299882411957 0.9105669856071472
          -0.2091909945011139 0.2433840036392212 0.9471020102500916 -0.36351698637008667 0.16227500140666962 0.9173449873924255
          -0.1550160050392151 0.30560600757598877 0.9394540190696716 0.021974999457597733 0.1262570023536682 0.9917539954185486
          -0.2691749930381775 0.1936350017786026 0.9434249997138977 -0.44673100113868713 0.1755550056695938 0.8772749900817871
          -0.5647500157356262 0.3526949882507324 0.7460989952087402 -0.1552090048789978 0.16244100034236908 0.9744349718093872
          -0.35044100880622864 0.13668499886989594 0.9265570044517517 0.016834000125527382 0.07385899871587753 0.9971269965171814
          0.06381399929523468 -0.09980300068855286 0.9929590225219727 -0.26398199796676636 0.022352000698447227 0.9642680287361145
          -0.10780400037765503 0.011694000102579594 0.9941030144691467 -0.7052720189094543 0.5890169739723206 0.3945249915122986
          -0.5991230010986328 0.31841298937797546 0.7346190214157104 -0.6936299800872803 0.4420419931411743 0.5687500238418579
          -0.8166919946670532 0.5186319947242737 0.2530519962310791 -0.866454005241394 0.4675469994544983 0.17509199678897858
          -0.910834014415741 0.4127480089664459 -0.00455200020223856 -0.9079179763793945 0.37011900544166565 0.1967180073261261
          -0.9354010224342346 0.30276501178741455 0.18264399468898773 -0.8171709775924683 0.35673099756240845 0.4527420103549957
          -0.7256150245666504 0.4269770085811615 0.5396050214767456 -0.4316830039024353 0.10845600068569183 0.8954820036888123
          -0.4766170084476471 0.10287299752235413 0.873071014881134 -0.26227399706840515 0.1111219972372055 0.9585739970207214
          -0.9308459758758545 0.36492401361465454 0.018893999978899956 -0.9826880097389221 0.17641499638557434 0.05658299848437309
          -0.9744560122489929 0.22146299481391907 0.03727699816226959 -0.9659240245819092 0.21373899281024933 0.14596499502658844
          -0.8678460121154785 0.46872198581695557 0.1647540032863617 -0.8771209716796875 0.4790230095386505 0.03458299860358238
          -0.7712240219116211 0.566241979598999 0.2908320128917694 -0.8275629878044128 0.561119019985199 0.01685499958693981
          -0.8479210138320923 0.4580009877681732 -0.2669549882411957 -0.6920790076255798 0.1625880002975464 0.7032719850540161
          -0.856607973575592 0.16733700037002563 0.4880779981613159 -0.9606900215148926 0.08910699933767319 0.262935996055603
          -0.9851899743080139 0.12374000251293182 0.11869499832391739 0.33946898579597473 -0.041756000369787216 0.9396899938583374
          0.19213099777698517 -0.10153800249099731 0.9761019945144653 0.328218013048172 -0.1901320070028305 0.9252690076828003
          0.2251179963350296 -0.13379600644111633 0.9651010036468506 0.06836599856615067 -0.24799500405788422 0.966346025466919
          0.1362520009279251 -0.3517259955406189 0.9261339902877808 0.05108699947595596 -0.3154880106449127 0.9475529789924622
          0.06269299983978271 -0.38624998927116394 0.920261025428772 0.06928200274705887 -0.48810699582099915 0.8700299859046936
          0.27629101276397705 -0.45023900270462036 0.8490869998931885 0.2817389965057373 -0.28686898946762085 0.91560298204422
          0.08532900363206863 -0.2930940091609955 0.9522680044174194 0.10196299850940704 -0.5230129957199097 0.8462039828300476
          0.08194000273942947 -0.6191310286521912 0.7810009717941284 -0.5035150051116943 0.472586989402771 0.7232810258865356
          -0.15627700090408325 0.5219849944114685 0.8385159969329834 -0.43182098865509033 0.41012299060821533 0.8033239841461182
          0.3830829858779907 0.006978000048547983 0.9236869812011719 0.48496299982070923 -0.015248999930918217 0.8744019865989685
          0.532522976398468 0.17689399421215057 0.8277239799499512 0.5506479740142822 0.3047569990158081 0.7771160006523132
          0.40433600544929504 0.445607990026474 0.7987149953842163 0.24063999950885773 0.5254889726638794 0.8160600066184998
          0.11136599630117416 0.607882022857666 0.7861790060997009 0.18319199979305267 -0.41586101055145264 0.8907859921455383
          -0.017055999487638474 0.45005300641059875 0.8928390145301819 -0.3672879934310913 0.36890798807144165 0.8538190126419067
          0.09416300058364868 0.4174189865589142 0.9038220047950745 -0.03866200149059296 0.4555709958076477 0.8893589973449707
          0.5112389922142029 -0.44099798798561096 0.7376689910888672 0.3487299978733063 -0.4571230113506317 0.8181840181350708
          0.5945519804954529 -0.5926539897918701 0.5433880090713501 0.5912269949913025 -0.46654900908470154 0.6578630208969116
          0.46570199728012085 -0.48744601011276245 0.7385920286178589 0.37269899249076843 -0.47865501046180725 0.7949749827384949
          0.49079400300979614 -0.6061260104179382 0.625885009765625 0.19438700377941132 -0.3188680112361908 0.9276509881019592
          0.12166400253772736 -0.18950000405311584 0.9743139743804932 0.05863400176167488 -0.0628490000963211 0.9962990283966064
          0.5153369903564453 -0.6244329810142517 0.5869500041007996 0.07811000198125839 0.6066650152206421 0.7911109924316406
          0.20123499631881714 0.616690993309021 0.7610499858856201 -0.003234999952837825 0.4286060035228729 0.9034860134124756
          0.03574400022625923 0.4321410059928894 0.9010969996452332 0.09177500009536743 0.3701460063457489 0.9244289994239807
          0.21167999505996704 0.29954200983047485 0.930305004119873 0.3626450002193451 0.25959599018096924 0.8950409889221191
          0.2792690098285675 0.28110700845718384 0.9181439876556396 0.2957029938697815 0.5989059805870056 0.7442259788513184
          0.3218109905719757 0.5237039923667908 0.7887790203094482 0.4209829866886139 0.20935900509357452 0.8825770020484924
          0.4840959906578064 0.11973699927330017 0.8667839765548706 0.41878700256347656 0.39359599351882935 0.8183519840240479
          0.46261700987815857 0.2549870014190674 0.8490980267524719 -0.2545680105686188 0.08760900050401688 0.9630780220031738
          -0.16424599289894104 0.09929999709129333 0.9814090132713318 -0.11374100297689438 0.2916390001773834 0.9497420191764832
          -0.13640500605106354 0.34422099590301514 0.9289270043373108 -0.5151240229606628 0.16139300167560577 0.8417829871177673
          -0.6446189880371094 0.12912799417972565 0.7535200119018555 -0.43367499113082886 0.054322998970746994 0.899429976940155
          -0.6154090166091919 0.18813000619411469 0.7654269933700562 0.12131399661302567 -0.31810200214385986 0.9402629733085632
          0.19139400124549866 -0.46737098693847656 0.8630949854850769 0.13328799605369568 -0.33507099747657776 0.9327170252799988
          -0.00027200000477023423 -0.1051739975810051 0.994454026222229 -0.1175139993429184 -0.1464949995279312 0.9822070002555847
          -0.3008520007133484 -0.10893099755048752 0.9474290013313293 -0.39726099371910095 -0.06812400370836258 0.9151740074157715
          -0.6663399934768677 0.30875900387763977 0.6787189841270447 -0.9107829928398132 0.407723993062973 0.06508900225162506
          -0.8879349827766418 0.42837101221084595 -0.1675419956445694 -0.9386169910430908 0.2611120045185089 -0.22543099522590637
          -0.8719649910926819 0.3142699897289276 -0.3753820061683655 -0.9560040235519409 0.292477011680603 -0.022664999589323997
          -0.8565629720687866 0.3260369896888733 0.3999989926815033 -0.8815140128135681 0.2999120056629181 0.364670991897583
          -0.9692760109901428 0.1882620006799698 -0.15830600261688232 -0.9561859965324402 0.2491759955883026 0.15368899703025818
          -0.7471529841423035 0.29381200671195984 0.5961859822273254 -0.6386939883232117 0.08477199822664261 0.7647770047187805
          -0.7470499873161316 -0.0020860000513494015 0.6647639870643616 -0.5494580268859863 0.036219000816345215 0.8347359895706177
          -0.13531099259853363 0.0279690008610487 0.9904080033302307 -0.39890599250793457 0.02456600032746792 0.9166629910469055
          -0.5848960280418396 -0.0703200027346611 0.8080539703369141 -0.879813015460968 0.44328799843788147 -0.17153899371623993
          -0.9557300209999084 0.17204099893569946 -0.23871000111103058 -0.8829470276832581 0.3399200141429901 -0.32381799817085266
          -0.9808539748191833 0.08545999974012375 -0.17499299347400665 -0.9874169826507568 0.10372699797153473 -0.11936800181865692
          -0.8866680264472961 0.4285629987716675 -0.17364899814128876 -0.8772310018539429 0.3897640109062195 -0.28026801347732544
          -0.8318169713020325 0.3509509861469269 -0.43001601099967957 -0.8484659790992737 0.05436599999666214 0.5264509916305542
          -0.958827018737793 -0.01943100057542324 0.2833240032196045 -0.9856680035591125 -0.015709999948740005 0.16796700656414032
          -0.9986289739608765 -0.009000999853014946 0.051566001027822495 -0.9985790252685547 0.007778999861329794 -0.0527149997651577
          0.48350998759269714 -0.22732700407505035 0.8453050255775452 0.32351401448249817 -0.3591879904270172 0.8753979802131653
          0.27568599581718445 -0.243367001414299 0.9299299716949463 0.46983399987220764 -0.44014298915863037 0.7652000188827515
          0.3274799883365631 -0.3321090042591095 0.8845679759979248 0.1157739982008934 -0.48729801177978516 0.8655269742012024
          0.24491100013256073 -0.6507499814033508 0.7187100052833557 0.14329500496387482 -0.6523320078849792 0.7442650198936462
          0.12228800356388092 -0.7377009987831116 0.6639599800109863 0.35797399282455444 -0.5922110080718994 0.7218999862670898
          0.18590499460697174 -0.6911299824714661 0.6984109878540039 0.06241400167346001 -0.7913280129432678 0.6081969738006592
          0.12413199990987778 -0.8007799983024597 0.585955023765564 0.03289699926972389 0.5919719934463501 0.8052870035171509
          -0.36593499779701233 0.36719900369644165 0.8551350235939026 -0.22694699466228485 0.5661100149154663 0.7924730181694031
          0.6524099707603455 -0.023351000621914864 0.7575060129165649 0.6025930047035217 -0.25682899355888367 0.7555930018424988
          0.7308430075645447 0.08706200122833252 0.6769710183143616 0.7088410258293152 0.23761799931526184 0.6641409993171692
          0.6190279722213745 0.3577269911766052 0.6991680264472961 0.5477030277252197 0.4976460039615631 0.6725850105285645
          0.177046000957489 0.6322180032730103 0.7542909979820251 0.35857099294662476 0.6003249883651733 0.7148680090904236
          0.945713996887207 0.21438099443912506 0.244268000125885 0.03483299911022186 0.7263810038566589 0.6864089965820312
          0.8108289837837219 0.38502100110054016 0.44081199169158936 0.14299599826335907 0.6910399794578552 0.7085310220718384
          -0.16382700204849243 0.34544798731803894 0.9240279793739319 -0.11566100269556046 0.5811529755592346 0.8055329918861389
          0.6721640229225159 -0.5829240083694458 0.4565039873123169 0.44183799624443054 -0.7615730166435242 0.4741150140762329
          0.5515829920768738 -0.7282480001449585 0.4067080020904541 0.5876790285110474 -0.7243989706039429 0.36038699746131897
          0.6437129974365234 -0.5719789862632751 0.5084030032157898 0.6672109961509705 -0.579770028591156 0.46764999628067017
          0.34781399369239807 -0.5450040102005005 0.7628870010375977 0.5116230249404907 -0.6009619832038879 0.6140739917755127
          0.20714899897575378 -0.4477500021457672 0.8698329925537109 0.08434300124645233 0.712552011013031 0.6965309977531433
          0.24081000685691833 0.68545001745224 0.687146008014679 -0.027139000594615936 0.36990898847579956 0.9286710023880005
          -0.18997099995613098 0.5061990022659302 0.8412330150604248 -0.2133840024471283 0.3586069941520691 0.9087730050086975
          -0.2120780050754547 0.4248409867286682 0.8800749778747559 -0.17975600063800812 0.34182101488113403 0.9224129915237427
          -0.20917199552059174 0.2123119980096817 0.9545530080795288 0.02022700011730194 0.17946399748325348 0.9835559725761414
          0.23048199713230133 0.03988400101661682 0.972258985042572 0.3017509877681732 -0.014690999872982502 0.9532740116119385
          0.3537760078907013 0.0006300000241026282 0.9353299736976624 0.29648101329803467 0.7232679724693298 0.6236839890480042
          0.3973909914493561 0.7281010150909424 0.5585240125656128 0.5460389852523804 0.49421900510787964 0.6764529943466187
          0.38545501232147217 0.4170210063457489 0.8231149911880493 0.22239500284194946 0.4541029930114746 0.862746000289917
          0.45615100860595703 -0.04123900085687637 0.888945996761322 0.37668898701667786 0.11771699786186218 0.9188299775123596
          0.6434199810028076 -0.06617400050163269 0.7626479864120483 0.5409110188484192 0.1296350061893463 0.8310289978981018
          0.4356519877910614 0.3577899932861328 0.825950026512146 0.542057991027832 0.35186100006103516 0.7631300091743469
          0.5062220096588135 0.22460900247097015 0.8326399922370911 0.3974139988422394 0.13640399277210236 0.9074450135231018
          0.4892059862613678 -0.0561399981379509 0.8703600168228149 -0.12180999666452408 0.11458899825811386 0.9859169721603394
          -0.24482299387454987 0.021998999640345573 0.9693179726600647 -0.05285400152206421 0.23436599969863892 0.9707109928131104
          0.007724999915808439 0.3760969936847687 0.9265480041503906 -0.5972539782524109 0.18308499455451965 0.7808759808540344
          -0.7007049918174744 -0.015344999730587006 0.7132859826087952 -0.7994289994239807 0.09154800325632095 0.5937439799308777
          -0.8680480122566223 -0.03557400032877922 0.49520498514175415 -0.8388010263442993 0.20626099407672882 0.5038530230522156
          -0.5532960295677185 -0.1084979996085167 0.8258879780769348 0.2152159959077835 -0.6015999913215637 0.769258975982666
          0.2402849942445755 -0.5955089926719666 0.7665719985961914 0.29261699318885803 -0.6907240152359009 0.6612679958343506
          0.06927700340747833 -0.3993090093135834 0.9141950011253357 -0.1648849993944168 -0.25834599137306213 0.9518769979476929
          -0.4367640018463135 -0.24603800475597382 0.8652759790420532 -0.31870201230049133 -0.2972869873046875 0.9000269770622253
          -0.25214898586273193 -0.2869519889354706 0.9241639971733093 -0.8010650277137756 0.36477598547935486 -0.474588006734848
          -0.9357550144195557 0.20264999568462372 -0.2886109948158264 -0.8898100256919861 0.19247299432754517 -0.4137539863586426
          -0.8682169914245605 0.21023300290107727 -0.4494450092315674 -0.8330129981040955 0.3215160071849823 -0.45024099946022034
          -0.9814460277557373 0.1914999932050705 0.00951400026679039 -0.9465640187263489 0.1276240050792694 -0.29619100689888
          -0.9735230207443237 0.15187999606132507 -0.17083999514579773 -0.9285809993743896 0.11076900362968445 -0.35421499609947205
          -0.9379270076751709 0.1236879974603653 0.32402798533439636 -0.9127619862556458 -0.10486999899148941 0.3948020040988922
          -0.8221049904823303 -0.08290600031614304 0.5632669925689697 -0.72114497423172 -0.05820300057530403 0.6903349757194519
          -0.816582977771759 -0.0032289999071508646 0.5772190093994141 -0.6101319789886475 0.0466810017824173 0.7909240126609802
          -0.7808330059051514 -0.09188699722290039 0.6179460287094116 -0.8240900039672852 0.3282409906387329 -0.46166500449180603
          -0.8508009910583496 0.1750980019569397 -0.4954580068588257 -0.9245370030403137 0.04066700115799904 -0.37891700863838196
          -0.9798449873924255 -0.08596999943256378 -0.18031500279903412 -0.9495270252227783 -0.07875499874353409 0.3036389946937561
          -0.9943529963493347 -0.09986100345849991 -0.035905998200178146 -0.9871829748153687 0.022137999534606934 0.158051997423172
          -0.960224986076355 -0.030796000733971596 0.277523010969162 -0.9906799793243408 -0.1318099945783615 -0.03432999923825264
          0.5821110010147095 -0.46534499526023865 0.6667839884757996 0.36314401030540466 -0.4935609996318817 0.7902690172195435
          0.47031599283218384 -0.638733983039856 0.6089509725570679 0.5601119995117188 -0.6121709942817688 0.5581409931182861
          0.19502000510692596 -0.7757419943809509 0.6001600027084351 0.29766198992729187 -0.7540469765663147 0.5855000019073486
          0.39259201288223267 -0.682299017906189 0.6167169809341431 0.26496198773384094 -0.8692560195922852 0.41735899448394775
          0.013647999614477158 -0.7379400134086609 0.6747279763221741 0.969668984413147 -0.22580599784851074 0.09356500208377838
          0.8031070232391357 -0.4373230040073395 0.4046820104122162 0.007675000000745058 -0.6915439963340759 0.7222939729690552
          0.6676329970359802 0.4952299892902374 0.5558900237083435 -0.10296899825334549 0.6726840138435364 0.732729971408844
          0.7518410086631775 -0.26638099551200867 0.6031389832496643 0.7277500033378601 -0.287990003824234 0.6224480271339417
          0.7403119802474976 -0.235507994890213 0.6296619772911072 0.6681209802627563 -0.4679409861564636 0.5784860253334045
          0.8295189738273621 -0.08245400339365005 0.5523589849472046 0.82914799451828 0.100273996591568 0.5499619841575623
          0.7826020121574402 0.26526400446891785 0.5631780028343201 0.6991050243377686 0.3838900029659271 0.6032249927520752
          0.7513239979743958 0.38540199398994446 0.5357030034065247 0.5941050052642822 0.5741249918937683 0.5634009838104248
          0.3517560064792633 0.7121239900588989 0.607574999332428 0.17305999994277954 0.7098360061645508 0.6827759742736816
          0.20591899752616882 0.7823269963264465 0.5878450274467468 0.7622979879379272 -0.49758899211883545 0.4138930141925812
          0.7388370037078857 -0.6290389895439148 0.24172300100326538 0.16563700139522552 -0.9240530133247375 0.34451401233673096
          0.49637600779533386 -0.8258810043334961 0.26745399832725525 0.48906001448631287 -0.708791971206665 0.5083649754524231
          0.5256779789924622 -0.8243280053138733 0.21010999381542206 0.5501649975776672 -0.8199769854545593 0.1579750031232834
          0.5496010184288025 -0.8131530284881592 0.19162599742412567 0.5465229749679565 -0.7827399969100952 0.29770898818969727
          0.6265169978141785 -0.5914790034294128 0.5075719952583313 0.6393430233001709 -0.45190998911857605 0.6221070289611816
          0.299111008644104 -0.6535369753837585 0.695285975933075 0.21132400631904602 0.755092978477478 0.6206259727478027
          -0.4642379879951477 0.5458070039749146 0.6975520253181458 -0.534775972366333 0.4439060091972351 0.718999981880188
          -0.4083940088748932 0.4552609920501709 0.7911720275878906 -0.4452210068702698 0.5616790056228638 0.6973490118980408
          -0.4405499994754791 0.4319530129432678 0.7869769930839539 -0.6312239766120911 0.349386990070343 0.6924489736557007
          -0.5427860021591187 0.33149200677871704 0.7716839909553528 -0.3573620021343231 0.28736400604248047 0.8886590003967285
          -0.17452800273895264 0.20663100481033325 0.9627270102500916 -0.21678400039672852 0.19604399800300598 0.9563320279121399
          0.5844500064849854 0.1862349957227707 0.7897689938545227 -0.02189899981021881 0.10563299804925919 0.994163990020752
          0.055424999445676804 0.055994998663663864 0.9968910217285156 0.16200600564479828 0.028888000175356865 0.9863669872283936
          0.24939200282096863 -0.08994799852371216 0.9642159938812256 0.2629910111427307 -0.11141400039196014 0.9583439826965332
          0.17490899562835693 -0.15834400057792664 0.9717689752578735 0.47134700417518616 -0.13256299495697021 0.8719279766082764
          0.28314098715782166 -0.23120300471782684 0.9307929873466492 0.4368770122528076 0.11402899771928787 0.8922650218009949
          0.3941879868507385 0.7301040291786194 0.5581790208816528 0.4642319977283478 0.7998930215835571 0.3803429901599884
          0.5786790251731873 0.6634669899940491 0.4742799997329712 0.3469190001487732 0.7747629880905151 0.5285729765892029
          0.5888929963111877 0.5605980157852173 0.5821809768676758 0.6019200086593628 0.3495280146598816 0.7179989814758301