<?xml version="1.0"?>
<VTKFile type="PolyData" version="0.1" byte_order="LittleEndian" header_type="UInt32" compressor="vtkZLibDataCompressor">
  <PolyData>
    <Piece NumberOfPoints="142" NumberOfVerts="0" NumberOfLines="0" NumberOfStrips="0" NumberOfPolys="216">
      <PointData Normals="Normals">
        <DataArray type="Float32" Name="Normals" NumberOfComponents="3" format="ascii" RangeMin="0.9999993279820651" RangeMax="1.0000006975923315">
          -0.6820120215415955 0.7313410043716431 -0.0000019999999949504854 0.9999210238456726 0.012550000101327896 0
          -0.5383790135383606 0.649304986000061 0.5371689796447754 -0.5251830220222473 0.8501229882240295 -0.03838900104165077
          -0.5535709857940674 0.6477050185203552 -0.5234869718551636 0.8798609972000122 -0.47254499793052673 0.05045900121331215
          0.9143549799919128 0.09039200097322464 0.3946950137615204 0.8001599907875061 -0.5997869968414307 0
          0.9143540263175964 0.09039299935102463 -0.39469701051712036 0.8763949871063232 -0.47797098755836487 -0.058959998190402985
          0.13707099854946136 0.9849140048027039 0.10562700033187866 -0.8027600049972534 0.4315510094165802 0.41150999069213867
          -0.9360449910163879 0.16486500203609467 -0.3108679950237274 -0.6119760274887085 0.41310301423072815 -0.6744120121002197
          -0.20841200649738312 0.39045199751853943 -0.8967229723930359 -0.16487200558185577 0.43350300192832947 -0.8859410285949707
          -0.353985995054245 0.9343349933624268 -0.04136599972844124 -0.14593300223350525 0.49081000685691833 0.8589580059051514
          -0.18118900060653687 0.4542120099067688 0.8722739815711975 -0.4581030011177063 0.3080950081348419 0.8337979912757874
          -0.8988010287284851 0.06508000195026398 0.43349799513816833 0.06344100087881088 0.9230350255966187 -0.3794479966163635
          -0.84580397605896 0.38210999965667725 -0.37230101227760315 0.8522899746894836 -0.3166700005531311 0.4163210093975067
          -0.1443289965391159 -0.8264589905738831 -0.5441820025444031 -0.8313720226287842 -0.06324499845504761 -0.5521060228347778
          0.26034700870513916 -0.9655150175094604 -0.000007000000096013537 0.00597799988463521 -0.83365398645401 0.5522540211677551
          0.6530359983444214 -0.4325929880142212 -0.6216170191764832 -0.8699300289154053 -0.09101700037717819 0.48470398783683777
          -0.17241500318050385 0.8188440203666687 0.5475109815597534 0.17035099864006042 0.9361220002174377 0.3076609969139099
          -0.6363760232925415 0.6972100138664246 -0.330036997795105 -0.14708299934864044 -0.6845939755439758 -0.7139310240745544
          0.24664899706840515 -0.5254300236701965 -0.8143020272254944 -0.24178500473499298 -0.3483560085296631 -0.9056429862976074
          -0.572268009185791 0.25689199566841125 -0.7787910103797913 -0.9872360229492188 -0.15394699573516846 0.04082300141453743
          -0.5272049903869629 0.2169180065393448 0.8215849995613098 -0.24177099764347076 -0.348349004983902 0.9056490063667297
          0.3091689944267273 -0.5273119807243347 0.7914270162582397 0.11761900037527084 -0.7023130059242249 0.7020840048789978
          -0.7030230164527893 0.5998240113258362 0.3820599913597107 0.04022400081157684 0.8253690004348755 -0.5631600022315979
          -0.10961099714040756 0.4286389946937561 -0.8968020081520081 -0.5124469995498657 0.3566280007362366 0.7811620235443115
          -0.4530099928379059 -0.7542949914932251 -0.4752059876918793 0.6708760261535645 -0.7139679789543152 -0.20043699443340302
          -0.6684060096740723 -0.20009200274944305 -0.7163779735565186 0.3468700051307678 -0.9379130005836487 -0.000004999999873689376
          -0.7507619857788086 0.4302459955215454 -0.5012440085411072 -0.9251130223274231 0.332163006067276 -0.1839430034160614
          -0.32420098781585693 0.2024330049753189 -0.9240750074386597 -0.453372985124588 -0.7542009949684143 0.4750089943408966
          0.5865669846534729 -0.8038139939308167 -0.09910299628973007 -0.7273349761962891 -0.24395500123500824 0.6414589881896973
          -0.7504180073738098 0.4302150011062622 0.5017840266227722 -0.9251130223274231 0.332163006067276 0.1839430034160614
          -0.7219809889793396 0.5778949856758118 0.380499005317688 -0.6106460094451904 0.7388190031051636 0.2850559949874878
          -0.5644969940185547 0.8184260129928589 0.10733900219202042 -0.17581699788570404 0.9026600122451782 -0.39280200004577637
          0.16807900369167328 0.9518560171127319 0.25635799765586853 -0.6615970134735107 0.6992340087890625 -0.2708530128002167
          0.22010600566864014 0.9716060161590576 0.08680599927902222 0.533411979675293 -0.8458549976348877 0.000011000000085914508
          -0.24945199489593506 -0.9683870077133179 0.000012999999853491317 -0.886551022529602 -0.45800501108169556 0.06526099890470505
          -0.886551022529602 -0.45800501108169556 -0.06526099890470505 -0.7364490032196045 0.5982369780540466 0.3158389925956726
          -0.011381000280380249 0.9979410171508789 0.06312000006437302 -0.03149700164794922 0.9847149848937988 -0.17130400240421295
          -0.6308029890060425 0.7734559774398804 0.06207900121808052 -0.2930909991264343 0.8545600175857544 0.4287469983100891
          -0.8121340274810791 0.5429199934005737 -0.21372200548648834 -0.7914029955863953 0.4684540033340454 -0.39272400736808777
          -0.7338659763336182 -0.6602069735527039 0.15989500284194946 0.6615039706230164 -0.6349890232086182 -0.39899900555610657
          0.4282839894294739 -0.5882520079612732 -0.6859530210494995 0.209088996052742 -0.38364899158477783 -0.8994969725608826
          0.2852360010147095 -0.39454901218414307 -0.8734830021858215 -0.00936300028115511 0.7753610014915466 -0.6314489841461182
          -0.2818790078163147 0.42831799387931824 -0.8585379719734192 0.6221640110015869 0.6072250008583069 -0.49415498971939087
          0.5232009887695312 0.5951830148696899 -0.609932005405426 -0.2477940022945404 -0.5142040252685547 -0.8210920095443726
          -0.07930099964141846 -0.9751690030097961 -0.20677700638771057 0.10987500101327896 0.750203013420105 -0.652014970779419
          0.038690000772476196 0.5411530137062073 -0.840034008026123 -0.11722400039434433 -0.981220006942749 -0.15318399667739868
          0.4125309884548187 -0.7049779891967773 -0.5769100189208984 -0.5706480145454407 0.371845006942749 -0.7321829795837402
          -0.7292289733886719 -0.6786980032920837 -0.08714299649000168 0.41564199328422546 -0.609145998954773 0.6754130125045776
          0.6579880118370056 -0.6522660255432129 0.3762989938259125 0.2106270045042038 -0.3807789981365204 0.9003570079803467
          0.3530440032482147 -0.4198459982872009 0.8361160159111023 -0.04532599821686745 0.7551659941673279 0.6539649963378906
          -0.4103749990463257 0.6457380056381226 0.6439059972763062 0.45528799295425415 0.7947850227355957 0.40128499269485474
          0.5342599749565125 0.8122749924659729 -0.2340410053730011 -0.2479269951581955 -0.5138869881629944 0.8212509751319885
          0.047839999198913574 -0.9839619994163513 0.17184600234031677 0.28120601177215576 0.8951110243797302 0.3459770083427429
          0.13285799324512482 0.5895860195159912 0.7967039942741394 0.5532060265541077 -0.763060986995697 -0.33421599864959717
          0.2022480070590973 -0.9451959729194641 0.25631898641586304 -0.5703989863395691 0.3718630075454712 0.732367992401123
          0.14618399739265442 0.8691499829292297 0.47244900465011597 -0.0948600023984909 0.9343109726905823 0.3436039984226227
          0.13152599334716797 0.9906449913978577 0.03636600077152252 -0.4619089961051941 0.7549890279769897 0.46543699502944946
          -0.9083639979362488 -0.4143980145454407 0.05611399933695793 -0.3649829924106598 0.5519970059394836 -0.7497249841690063
          -0.3449310064315796 0.47981399297714233 0.8067229986190796 -0.1828240007162094 0.9644290208816528 0.19092200696468353
          -0.0818289965391159 0.8213899731636047 -0.5644670128822327 -0.03346500173211098 0.9820680022239685 -0.18553200364112854
          -0.49758899211883545 0.7665809988975525 -0.40590500831604004 0.9543099999427795 -0.2964380085468292 0.03765000030398369
          0.8183469772338867 -0.566169023513794 0.09879499673843384 0.6980019807815552 0.7158269882202148 -0.01963300071656704
          0.5381410121917725 0.6633750200271606 -0.5199400186538696 0.5908539891242981 0.657489001750946 -0.4675469994544983
          0.5345169901847839 0.46927300095558167 -0.702904999256134 0.3071939945220947 0.5897700190544128 -0.74686199426651
          0.426472008228302 0.7613660097122192 -0.48830699920654297 0.4114550054073334 0.23982399702072144 -0.8793119788169861
          0.26401200890541077 0.42003199458122253 -0.868257999420166 0.9578760266304016 -0.2762570083141327 0.07845400273799896
          0.6957749724388123 0.5168110132217407 0.4988020062446594 0.54579097032547 0.647445023059845 0.5319089889526367
          0.6293749809265137 0.6517500281333923 0.4232119917869568 0.5192049741744995 0.3371109962463379 0.7853549718856812
          0.6561260223388672 0.6132670044898987 0.4397760033607483 0.45006999373435974 0.8481929898262024 -0.27929699420928955
          0.4656600058078766 0.29496699571609497 0.8343589901924133 0.6490499973297119 0.705489993095398 0.2846370041370392
          0.4701460003852844 0.7969350218772888 -0.3792850077152252 -0.5653280019760132 0.7555440068244934 0.33099499344825745
          0.27587300539016724 0.583262026309967 0.7640029788017273 0.5017380118370056 0.8004419803619385 0.32795000076293945
          <InformationKey name="L2_NORM_RANGE" location="vtkDataArray" length="2">
            <Value index="0">
              0.99999932798
            </Value>
            <Value index="1">
              1.0000006976
            </Value>
          </InformationKey>
        </DataArray>
      </PointData>
      <CellData>
      </CellData>
      <Points>
        <DataArray type="Float32" Name="Points" NumberOfComponents="3" format="ascii" RangeMin="0.08486790886118023" RangeMax="0.12318752067909446">
          -0.009007999673485756 0.09774000197649002 0.00012799999967683107 -0.0030980000738054514 0.10641399770975113 0.00012799999967683107
          -0.002500999951735139 0.10667599737644196 -0.003561000106856227 -0.009939000010490417 0.09748700261116028 0.00012799999967683107
          -0.002500999951735139 0.10667599737644196 0.0038169999606907368 -0.004521999973803759 0.09051100164651871 -0.0018080000299960375
          -0.0031789999920874834 0.10571800172328949 -0.0012649999698624015 -0.004523000214248896 0.09050899744033813 0.00012799999967683107
          -0.0031789999920874834 0.10571800172328949 0.0015219999477267265 -0.004521999973803759 0.09051100164651871 0.0020639998838305473
          0.002113000024110079 0.11055599898099899 -0.010386000387370586 -0.00344299990683794 0.1064700037240982 -0.004224999807775021
          -0.004757000133395195 0.10057800263166428 -0.010064000263810158 -0.010909000411629677 0.0927710011601448 -0.004490000195801258
          -0.016433000564575195 0.09101399779319763 -0.0031969998963177204 -0.022019999101758003 0.0904029980301857 -0.003005000064149499
          -0.022314999252557755 0.09242600202560425 0.00012799999967683107 -0.022019999101758003 0.0904029980301857 0.003260999917984009
          -0.016433000564575195 0.09101399779319763 0.003452999982982874 -0.010909000411629677 0.0927710011601448 0.004745999816805124
          -0.004757000133395195 0.10057800263166428 0.010320000350475311 0.002113000024110079 0.11055599898099899 0.010641999542713165
          -0.00344299990683794 0.1064700037240982 0.004482000134885311 0.0004450000124052167 0.09641499817371368 -0.008382000029087067
          -0.010386000387370586 0.08821500092744827 -0.005690000019967556 -0.0055149998515844345 0.09288699924945831 -0.010451000183820724
          -0.01039000041782856 0.08820799738168716 0.00012799999967683107 -0.010386000387370586 0.08821500092744827 0.0059460001066327095
          0.0004450000124052167 0.09641499817371368 0.00863800011575222 -0.0055149998515844345 0.09288699924945831 0.010707000270485878
          0.007247000001370907 0.10585100203752518 -0.010452999733388424 0.005797999911010265 0.10715600103139877 -0.011699000373482704
          0.0008759999764151871 0.10610300302505493 -0.01949699968099594 -0.012942000292241573 0.08782000094652176 -0.004900000058114529
          -0.018828999251127243 0.08416599780321121 -0.004765000194311142 -0.02244199998676777 0.08185099810361862 -0.004639000166207552
          -0.02747499942779541 0.08645199984312057 -0.0036770000588148832 -0.027300000190734863 0.09080400317907333 0.00012799999967683107
          -0.02747499942779541 0.08645199984312057 0.003932999912649393 -0.02244199998676777 0.08185099810361862 0.004896000027656555
          -0.018828999251127243 0.08416599780321121 0.005020999815315008 -0.012942000292241573 0.08782000094652176 0.005156000144779682
          0.0008759999764151871 0.10610300302505493 0.019752999767661095 0.005797999911010265 0.10715600103139877 0.011955000460147858
          0.007247000001370907 0.10585100203752518 0.010708999820053577 0.011620000004768372 0.10064899921417236 -0.009312000125646591
          0.009058999828994274 0.0948759987950325 -0.008371000178158283 0.009440000168979168 0.10622099786996841 -0.018250999972224236
          -0.0032389999832957983 0.09416499733924866 -0.019664999097585678 -0.01294500008225441 0.08781400322914124 0.00012799999967683107
          -0.0013000000035390258 0.10048700124025345 -0.020956000313162804 -0.004273999948054552 0.09375599771738052 -0.01482400018721819
          0.011620000004768372 0.10064899921417236 0.009569000452756882 0.009058999828994274 0.0948759987950325 0.008627000264823437
          0.009440000168979168 0.10622099786996841 0.018508000299334526 -0.0032389999832957983 0.09416499733924866 0.01992099918425083
          -0.0013000000035390258 0.10048700124025345 0.021212000399827957 -0.004273999948054552 0.09375599771738052 0.015080000273883343
          0.011846999637782574 0.11086200177669525 -0.008427999913692474 0.01168300025165081 0.11226899921894073 -0.009359999559819698
          0.010204000398516655 0.1072319969534874 -0.011199000291526318 0.011532999575138092 0.10780200362205505 -0.014182999730110168
          0.007356000132858753 0.11006800085306168 -0.01607700064778328 0.0035379999317228794 0.10175999999046326 -0.020771000534296036
          0.008678999729454517 0.111845001578331 -0.02182699926197529 -0.018830999732017517 0.08416099846363068 0.00012799999967683107
          -0.02244500070810318 0.08184599876403809 0.00012799999967683107 -0.02713399939239025 0.08326900005340576 -0.003587000072002411
          -0.02713399939239025 0.08326900005340576 0.0038429999258369207 0.0035379999317228794 0.10175999999046326 0.021014999598264694
          0.008678999729454517 0.111845001578331 0.022072000429034233 0.007356000132858753 0.11006800085306168 0.016333000734448433
          0.010204000398516655 0.1072319969534874 0.011455000378191471 0.011532999575138092 0.10780200362205505 0.014438999816775322
          0.01168300025165081 0.11226899921894073 0.009616999886929989 0.011846999637782574 0.11086200177669525 0.008684000000357628
          0.010495999827980995 0.09391500055789948 -0.0034940000623464584 0.029363999143242836 0.09463299810886383 -0.007278999779373407
          0.026170000433921814 0.09568300098180771 -0.012782000005245209 0.02247699908912182 0.09566300362348557 -0.014276999980211258
          0.018543999642133713 0.10056799650192261 -0.015675000846385956 0.012098999693989754 0.10504200309515 -0.015569999814033508
          0.007048000115901232 0.10956200212240219 -0.023718999698758125 0.009864999912679195 0.10021799802780151 -0.020410999655723572
          0.009089999832212925 0.10760600119829178 -0.025800000876188278 0.008453000336885452 0.09914500266313553 -0.02771800011396408
          0.012109999544918537 0.09784000366926193 -0.024771999567747116 0.015209999866783619 0.10527099668979645 -0.016654999926686287
          0.015752999112010002 0.10433600097894669 -0.020016999915242195 0.015266000293195248 0.09742400050163269 -0.022562000900506973
          0.01750599965453148 0.10279099643230438 -0.01933399960398674 0.005326999817043543 0.10229600220918655 -0.024135999381542206
          0.010495999827980995 0.09391500055789948 0.0037499999161809683 0.026170000433921814 0.09568300098180771 0.013038000091910362
          0.029363999143242836 0.09463299810886383 0.007534999866038561 0.02247699908912182 0.09566300362348557 0.014533000066876411
          0.018543999642133713 0.10056799650192261 0.01593099907040596 0.012098999693989754 0.10504200309515 0.015825999900698662
          0.007048000115901232 0.10956200212240219 0.02396400086581707 0.009089999832212925 0.10760600119829178 0.026045000180602074
          0.009864999912679195 0.10021799802780151 0.020656000822782516 0.008453000336885452 0.09914500266313553 0.02796199917793274
          0.012109999544918537 0.09784000366926193 0.025016000494360924 0.01603100076317787 0.09866700321435928 0.019360000267624855
          0.015209999866783619 0.10527099668979645 0.01691100001335144 0.017782000824809074 0.09714999794960022 0.018706999719142914
          0.015266000293195248 0.09742400050163269 0.02280599996447563 0.005326999817043543 0.10229600220918655 0.024380000308156013
          0.013654000125825405 0.11513599753379822 -0.009939000010490417 0.014426000416278839 0.11023300141096115 -0.004395999945700169
          0.01515199989080429 0.11433400213718414 -0.0122079998254776 0.01347300037741661 0.10984499752521515 -0.00203699991106987
          0.010545000433921814 0.09321700036525726 0.00012799999967683107 0.014309000223875046 0.11341000348329544 -0.013387000188231468
          0.014309000223875046 0.11341000348329544 0.013643000274896622 0.01515199989080429 0.11433400213718414 0.012463999912142754
          0.013654000125825405 0.11513599753379822 0.010195000097155571 0.014426000416278839 0.11023300141096115 0.004652000032365322
          0.01347300037741661 0.10984499752521515 0.0022929999977350235 0.03064800053834915 0.0947979986667633 -0.00184299994725734
          0.03061399981379509 0.09494300186634064 0.00012799999967683107 0.028126999735832214 0.10860200226306915 -0.006413999944925308
          0.024738000705838203 0.10944599658250809 -0.009988999925553799 0.022266000509262085 0.11060900241136551 -0.011366000398993492
          0.018806999549269676 0.10746599733829498 -0.014712000265717506 0.017348000779747963 0.10411600023508072 -0.019838999956846237
          0.012901999987661839 0.09990400075912476 -0.021025000140070915 0.010614999569952488 0.100552998483181 -0.027170000597834587
          0.014897000044584274 0.0986500009894371 -0.021810000762343407 0.03064800053834915 0.0947979986667633 0.0020989999175071716
          0.028126999735832214 0.10860200226306915 0.006670000031590462 0.024738000705838203 0.10944599658250809 0.010245000012218952
          0.022266000509262085 0.11060900241136551 0.011621999554336071 0.018806999549269676 0.10746599733829498 0.01496800035238266
          0.017625000327825546 0.09845200181007385 0.019190000370144844 0.012901999987661839 0.09990400075912476 0.02126999944448471
          0.010614999569952488 0.100552998483181 0.027414999902248383 0.014897000044584274 0.0986500009894371 0.022055000066757202
          0.017407000064849854 0.11347199976444244 -0.011447000317275524 0.016280999407172203 0.10909400135278702 0.00012799999967683107
          0.02185099944472313 0.1212339997291565 0.00012799999967683107 0.017407000064849854 0.11347199976444244 0.011703000403940678
          <InformationKey name="L2_NORM_RANGE" location="vtkDataArray" length="2">
            <Value index="0">
              0.084867908861
            </Value>
            <Value index="1">
              0.12318752068
            </Value>
          </InformationKey>
        </DataArray>
      </Points>
      <Verts>
        <DataArray type="Int64" Name="connectivity" format="ascii" RangeMin="1e+299" RangeMax="-1e+299">
        </DataArray>
        <DataArray type="Int64" Name="offsets" format="ascii" RangeMin="1e+299" RangeMax="-1e+299">
        </DataArray>
      </Verts>
      <Lines>
        <DataArray type="Int64" Name="connectivity" format="ascii" RangeMin="1e+299" RangeMax="-1e+299">
        </DataArray>
        <DataArray type="Int64" Name="offsets" format="ascii" RangeMin="1e+299" RangeMax="-1e+299">
        </DataArray>
      </Lines>
      <Strips>
        <DataArray type="Int64" Name="connectivity" format="ascii" RangeMin="1e+299" RangeMax="-1e+299">
        </DataArray>
        <DataArray type="Int64" Name="offsets" format="ascii" RangeMin="1e+299" RangeMax="-1e+299">
        </DataArray>
      </Strips>
      <Polys>
        <DataArray type="Int32" Name="connectivity" format="ascii" RangeMin="0" RangeMax="141">
          0 1 2 2 3 0
          4 1 0 0 3 4
          5 6 1 7 5 1
          1 6 2 1 8 9
          1 9 7 4 8 1
          10 2 6 10 11 2
          2 12 13 3 12 2
          11 3 14 15 16 13
          14 3 16 17 18 3
          3 18 19 3 19 20
          4 8 4 21 4 22
          21 22 4 20 23 6
          5 23 5 24 25 24
          5 7 26 10 6 23
          26 7 9 27 28 8
          21 9 8 28 29 27
          9 28 30 31 10 23
          10 32 12 11 10 31
          32 13 12 24 33 12
          25 24 12 32 25 14
          13 33 34 14 34 35
          15 14 35 16 15 36
          37 35 36 15 37 38
          17 16 39 18 17 17
          38 39 39 40 18 40
          41 19 18 41 27 20
          19 22 20 42 21 27
          29 20 29 42 20 28
          21 43 44 42 43 21
          30 23 45 45 23 46
          47 46 23 47 23 25
          48 49 33 24 26 25
          32 50 25 50 51 25
          51 48 26 27 41 49
          52 28 44 53 28 52
          28 53 54 55 29 28
          54 56 42 29 57 56
          29 55 57 29 58 59
          30 45 59 60 30 60
          31 30 61 62 31 60
          62 32 31 32 63 50
          32 62 64 63 65 34
          33 49 66 35 34 65
          66 37 35 67 35 37
          67 36 35 36 67 37
          39 37 66 37 68 38
          37 39 68 39 38 68
          65 40 39 66 49 41
          40 65 56 69 42 69
          70 71 42 43 42 71
          72 43 71 73 44 43
          72 52 44 74 75 44
          72 74 58 45 46 58
          46 76 77 76 46 78
          78 46 79 79 46 80
          46 47 80 81 47 62
          61 47 64 62 47 82
          64 47 83 84 82 47
          48 85 47 85 86 83
          47 87 88 47 81 87
          89 90 47 90 80 47
          47 86 89 51 50 48
          50 91 48 91 85 48
          63 91 50 53 52 75
          92 53 75 93 53 92
          94 95 53 93 96 53
          95 96 54 53 73 71
          54 97 71 70 54 70
          98 54 98 99 100 54
          101 55 54 102 101 54
          103 104 54 100 104 97
          54 54 105 106 54 96
          105 106 102 54 55 56
          57 55 107 56 55 101
          107 56 107 69 108 58
          109 110 59 58 108 109
          58 111 111 58 76 112
          110 113 60 59 113 61
          60 81 61 113 82 63
          64 91 63 82 70 69
          98 98 69 107 74 72
          114 115 72 73 114 114
          73 97 116 75 74 115
          117 75 116 118 75 117
          112 92 75 118 76 77
          119 120 112 77 121 119
          78 122 121 77 79 122
          78 80 123 122 79 80
          124 123 80 90 125 124
          87 81 113 82 84 91
          126 84 83 126 83 88
          84 127 91 126 127 84
          91 127 85 86 85 127
          89 86 127 128 125 88
          87 124 124 87 113 128
          126 88 125 90 89 128
          125 112 120 129 94 92
          94 130 131 93 93 131
          95 129 130 94 95 131
          132 96 132 133 96 133
          134 105 96 114 97 104
          107 99 98 100 99 135
          107 136 99 99 136 135
          103 100 135 101 136 107
          136 101 102 137 136 102
          106 133 104 103 134 134
          103 135 137 114 104 133
          134 137 106 105 123 138
          108 109 138 110 108 123
          109 122 122 109 121 109
          139 140 121 109 111 139
          124 113 110 138 139 111
          112 112 118 139 141 115
          114 133 116 115 141 117
          116 141 132 131 117 132
          130 117 131 130 140 139
          117 139 118 117 121 140
          120 119 129 120 140 130
          123 124 138 127 126 128
          141 133 132 137 135 136
        </DataArray>
        <DataArray type="Int32" Name="offsets" format="ascii" RangeMin="3" RangeMax="720">
          3 6 9 12 15 18
          21 24 27 30 33 36
          40 43 47 50 54 57
          61 64 67 70 73 77
          81 84 88 91 94 98
          102 106 109 113 116 119
          123 126 129 133 136 140
          143 146 149 153 157 161
          164 167 171 174 177 180
          183 187 191 194 197 200
          204 207 210 213 217 220
          223 226 230 233 236 240
          243 246 250 254 258 261
          264 267 270 273 276 279
          282 286 290 293 297 300
          304 307 311 314 317 320
          324 327 330 333 337 340
          343 347 350 353 357 360
          363 366 369 372 375 378
          381 384 387 391 394 397
          400 404 407 410 414 417
          420 424 427 430 433 436
          439 442 445 448 451 455
          458 462 466 469 472 475
          478 481 484 488 491 494
          498 501 504 508 513 516
          520 523 527 530 534 537
          540 543 546 549 552 555
          558 562 566 569 573 577
          582 586 589 592 596 599
          603 606 609 612 615 618
          621 624 627 631 635 639
          642 646 650 653 656 659
          663 666 670 673 676 680
          683 687 690 693 697 700
          704 708 711 714 717 720
        </DataArray>
      </Polys>
    </Piece>
  </PolyData>
</VTKFile>
