<?xml version="1.0"?>
<VTKFile type="PolyData" version="0.1" byte_order="LittleEndian" header_type="UInt32" compressor="vtkZLibDataCompressor">
  <PolyData>
    <Piece NumberOfPoints="212" NumberOfVerts="0" NumberOfLines="0" NumberOfStrips="0" NumberOfPolys="424">
      <PointData Normals="Normals">
        <DataArray type="Float32" Name="Normals" NumberOfComponents="3" format="ascii" RangeMin="0.999999333528045" RangeMax="1.0000006471020668">
          0.4135040044784546 -0.910502016544342 0.00025400001322850585 0.2207379937171936 -0.9646890163421631 0.1437010020017624
          -0.25135600566864014 -0.967894971370697 0.000011000000085914508 0.8994010090827942 -0.36540499329566956 0.2399110049009323
          0.8639820218086243 -0.5035219788551331 0.00017100000695791095 0.22082599997520447 -0.9646959900856018 -0.1435209959745407
          0.8994839787483215 -0.36535200476646423 -0.23968000710010529 0.2867940068244934 -0.8681899905204773 0.4049629867076874
          0.07825600355863571 -0.7166640162467957 0.6930149793624878 -0.5695989727973938 -0.8218290209770203 -0.012403000146150589
          -0.6625679731369019 -0.7490019798278809 -0.000011000000085914508 -0.6131430268287659 -0.777629017829895 0.1391019970178604
          -0.35965800285339355 -0.6290299892425537 0.689179003238678 0.2867890000343323 -0.8681929707527161 -0.4049600064754486
          0.07825499773025513 -0.7166739702224731 -0.6930040121078491 -0.5695970058441162 -0.8218309879302979 0.012384000234305859
          -0.6131410002708435 -0.7776309847831726 -0.13909700512886047 -0.3596569895744324 -0.6290339827537537 -0.6891760230064392
          0.9980520009994507 -0.06239200010895729 0.00014000000373926014 0.9574419856071472 -0.00710600009188056 0.2885400056838989
          0.7352979779243469 -0.04880300164222717 0.6759849786758423 0.957518994808197 -0.007091000210493803 -0.2882840037345886
          0.7352989912033081 -0.04880699887871742 -0.6759830117225647 0.31317800283432007 0.10230199992656708 0.944167971611023
          -0.9649249911308289 -0.2607170045375824 -0.03077699989080429 -0.9969940185546875 0.0774800032377243 -0.000015999999959603883
          -0.9649239778518677 -0.2607179880142212 0.030773000791668892 -0.28220000863075256 0.0634090006351471 0.9572579860687256
          -0.8460590243339539 -0.2276110053062439 0.48205599188804626 -0.9825779795646667 -0.07613900303840637 -0.16954000294208527
          0.31318199634552 0.10230500251054764 -0.9441670179367065 -0.8460599780082703 -0.22761400043964386 -0.4820519983768463
          -0.28220200538635254 0.06342200189828873 -0.957256019115448 -0.9825779795646667 -0.07613799721002579 0.1695380061864853
          0.9172700047492981 -0.3982659876346588 0.0002969999914057553 0.8261039853096008 -0.46487000584602356 0.3185090124607086
          0.7128480076789856 0.03645800054073334 0.7003700137138367 0.8261809945106506 -0.4648919999599457 -0.3182770013809204
          0.7128509879112244 0.03645699843764305 -0.7003679871559143 0.3010680079460144 0.11604499816894531 0.9465150237083435
          -0.8661080002784729 0.44508400559425354 -0.22750000655651093 -0.8494589924812317 0.5276539921760559 -0.00006199999916134402
          -0.8661180138587952 0.4450789988040924 0.22747600078582764 -0.14567400515079498 0.07984399795532227 0.9861050248146057
          -0.4966199994087219 -0.4145730137825012 0.7625600099563599 -0.9807569980621338 0.06099199876189232 -0.18546099960803986
          0.30106499791145325 0.11605100333690643 -0.9465159773826599 -0.49662500619888306 -0.41457098722457886 -0.7625579833984375
          -0.1456719934940338 0.07984299957752228 -0.9861059784889221 -0.9807569980621338 0.060989998281002045 0.18546299636363983
          0.8790050148963928 -0.4768129885196686 0.0001720000000204891 0.8159670233726501 -0.5120959877967834 0.26824700832366943
          0.47492000460624695 -0.4985089898109436 0.7252169847488403 0.8160079717636108 -0.512099027633667 -0.26811400055885315
          0.4749169945716858 -0.49850499629974365 -0.7252209782600403 0.10879900306463242 -0.4332750141620636 0.8946710228919983
          -0.850271999835968 0.4776709973812103 -0.22105899453163147 -0.3200010061264038 0.33969900012016296 -0.884423017501831
          -0.9014379978179932 0.4329090118408203 -0.00012599999899975955 -0.8502969741821289 0.47766000032424927 0.22098800539970398
          -0.31999099254608154 0.33970099687576294 0.8844259977340698 -0.12344899773597717 -0.3520840108394623 0.9277909994125366
          0.24524599313735962 0.0104160001501441 0.9694049954414368 -0.8290249705314636 -0.5591779947280884 0.006126999855041504
          -0.9171040058135986 -0.3011679947376251 0.26118698716163635 0.12410099804401398 0.08874700218439102 0.9882929921150208
          0.6912940144538879 -0.23230299353599548 -0.6842139959335327 0.10879500210285187 -0.43327298760414124 -0.8946719765663147
          0.24523599445819855 0.010405000299215317 -0.9694079756736755 -0.12345200031995773 -0.35208800435066223 -0.9277899861335754
          -0.9171069860458374 -0.30115601420402527 -0.2611890137195587 -0.8290280103683472 -0.5591729879379272 -0.006128000095486641
          0.124099001288414 0.08874499797821045 -0.9882929921150208 0.6914610266685486 -0.23235200345516205 0.6840270161628723
          0.9859279990196228 0.16717000305652618 0.00014899999951012433 0.9088820219039917 0.2973119914531708 0.2924720048904419
          0.5124490261077881 -0.5018960237503052 0.6967759728431702 0.9089159965515137 0.2973160147666931 -0.29236000776290894
          0.5124520063400269 -0.501895010471344 -0.6967740058898926 0.051291000097990036 -0.46307799220085144 0.8848320245742798
          -0.12479600310325623 0.9332630038261414 -0.33681800961494446 -0.2632249891757965 0.14597800374031067 -0.9536259770393372
          -0.4216260015964508 0.9067699909210205 -0.00017800000205170363 -0.12482299655675888 0.9333040118217468 0.3366929888725281
          -0.2632110118865967 0.1459829956293106 0.9536290168762207 -0.2336290031671524 -0.1264919936656952 0.9640629887580872
          -0.21084000170230865 0.44577398896217346 0.8699610233306885 0.5243690013885498 0.6058549880981445 0.5983110070228577
          -0.3959999978542328 -0.4154509902000427 0.8188930153846741 -0.5447049736976624 -0.46073299646377563 0.70073002576828
          0.39845800399780273 -0.4630900025367737 0.7916939854621887 0.5042999982833862 -0.7761359810829163 0.3785429894924164
          0.4127640128135681 0.20117999613285065 0.8883429765701294 -0.7806209921836853 -0.16175900399684906 0.6037089824676514
          0.802236020565033 -0.5970069766044617 -0.0002500000118743628 0.33050400018692017 -0.8628780245780945 -0.3823719918727875
          0.10171999782323837 0.9948130249977112 0.000029000000722589903 0.04506700113415718 0.7596819996833801 -0.6487320065498352
          0.051284000277519226 -0.46308600902557373 -0.8848289847373962 -0.2108439952135086 0.44577398896217346 -0.8699600100517273
          -0.23363499343395233 -0.12649300694465637 -0.9640610218048096 0.524366021156311 0.6058570146560669 -0.5983129739761353
          -0.544704020023346 -0.4607369899749756 -0.7007279992103577 -0.39621299505233765 -0.4147759974002838 -0.8191310167312622
          0.39845800399780273 -0.4630900025367737 -0.7916939854621887 0.5043060183525085 -0.7761319875717163 -0.3785429894924164
          -0.7806069850921631 -0.16177299618721008 -0.6037229895591736 0.4127640128135681 0.20117999613285065 -0.8883429765701294
          0.33048099279403687 -0.8629189729690552 0.3822999894618988 0.045177001506090164 0.7596529722213745 0.6487579941749573
          0.3247239887714386 0.945809006690979 -0.000003000000106112566 0.7198579907417297 0.49082499742507935 0.49081000685691833
          0.4461979866027832 0.34497499465942383 0.8257719874382019 0.7198569774627686 0.4908309876918793 -0.4908060133457184
          0.44620299339294434 0.3449789881706238 -0.825767993927002 -0.11905600130558014 0.49267101287841797 0.8620330095291138
          0.4420830011367798 0.8808789849281311 -0.16915899515151978 0.637129008769989 0.7272220253944397 0.2553730010986328
          -0.21721599996089935 0.8408679962158203 -0.49573999643325806 0.08649499714374542 0.9472190141677856 0.30869901180267334
          0.637129008769989 0.7272220253944397 -0.2553730010986328 0.44219300150871277 0.8807910084724426 0.16933199763298035
          -0.2172120064496994 0.8408719897270203 0.4957349896430969 0.08650899678468704 0.9472200274467468 -0.30869200825691223
          0.6660190224647522 0.4110009968280792 0.6224930286407471 0.7621679902076721 0.3885290026664734 0.5178269743919373
          0.5412219762802124 0.37811198830604553 0.7510719895362854 0.0035439999774098396 -0.6203370094299316 0.78432697057724
          0.5816100239753723 0.22621099650859833 0.7813820242881775 -0.5343700051307678 0.7215369939804077 0.4402639865875244
          0.027329999953508377 0.21035200357437134 0.9772440195083618 -0.825918972492218 -0.24766400456428528 -0.5064780116081238
          -0.5077940225601196 0.8295930027961731 -0.2322079986333847 0.6328279972076416 -0.7101860046386719 0.30848899483680725
          0.14214399456977844 0.2637160122394562 0.954069972038269 0.06128299981355667 -0.09009700268507004 0.9940459728240967
          -0.9344450235366821 -0.04755600169301033 0.3529190123081207 -0.8210830092430115 0.5697659850120544 0.03448500111699104
          -0.4517480134963989 -0.8921459913253784 -0.00011700000322889537 -0.5222399830818176 -0.7950400114059448 -0.3085089921951294
          -0.4249280095100403 0.90522700548172 0.00018699999782256782 -0.02110300026834011 0.962270975112915 0.27127501368522644
          -0.2972880005836487 0.9488840103149414 0.10601300001144409 -0.4350759983062744 0.8800240159034729 -0.19043900072574615
          -0.020920999348163605 0.9623169898986816 -0.2711249887943268 -0.2971380054950714 0.9489480257034302 -0.10586600005626678
          -0.43506601452827454 0.880016028881073 0.1904979944229126 -0.4606199860572815 0.7735049724578857 -0.4353390038013458
          -0.11905399709939957 0.49268001317977905 -0.8620280027389526 0.6660190224647522 0.4110009968280792 -0.6224930286407471
          0.7618460059165955 0.38920098543167114 -0.5177969932556152 0.027334999293088913 0.21035300195217133 -0.9772430062294006
          -0.5343719720840454 0.7215369939804077 -0.44026198983192444 0.0029810001142323017 -0.6194189786911011 -0.7850549817085266
          -0.8243560194969177 -0.2485170066356659 0.5086029767990112 -0.5077919960021973 0.8295940160751343 0.23220999538898468
          0.5401269793510437 0.3797819912433624 -0.7510179877281189 0.5811139941215515 0.22747500240802765 -0.7813839912414551
          0.6328250169754028 -0.7101879715919495 -0.30849000811576843 0.14214999973773956 0.26371699571609497 -0.9540690183639526
          -0.934436023235321 -0.0475660003721714 -0.35293999314308167 0.06129800155758858 -0.09010300040245056 -0.9940440058708191
          -0.8210819959640503 0.5697669982910156 -0.03450300171971321 -0.5221580266952515 -0.7951099872589111 0.30846700072288513
          -0.46062201261520386 0.7735059857368469 0.4353350102901459 -0.5727149844169617 0.6436840295791626 -0.507610023021698
          -0.6017330288887024 0.19247600436210632 -0.7751579880714417 -0.5719090104103088 0.6432790160179138 0.5090309977531433
          -0.6013860106468201 0.19154700636863708 0.7756580114364624 -0.595812976360321 0.18805000185966492 0.780797004699707
          -0.9839159846305847 0.09655000269412994 -0.1502940058708191 -0.6478300094604492 0.6669300198554993 0.36813101172447205
          -0.9318100214004517 0.09698999673128128 0.3497470021247864 -0.9086250066757202 -0.1556369960308075 0.3875289857387543
          -0.3934679925441742 0.8983790278434753 0.1951889991760254 -0.12468799948692322 -0.9574940204620361 0.26011401414871216
          -0.3213239908218384 -0.9127510190010071 -0.25226500630378723 0.3067280054092407 -0.9517970085144043 -0.00007400000322377309
          -0.321382999420166 -0.912759006023407 0.2521570026874542 -0.38801199197769165 0.816277027130127 0.427946001291275
          -0.5374979972839355 0.8432620167732239 -0.002380999969318509 -0.6284260153770447 0.5931959748268127 0.5031890273094177
          -0.38805100321769714 0.8162930011749268 -0.42788100242614746 -0.6280239820480347 0.5933769941329956 -0.5034769773483276
          -0.3934679925441742 0.8983790278434753 -0.1951880007982254 -0.9318100214004517 0.09699500352144241 -0.3497450053691864
          -0.6478319764137268 0.6669319868087769 -0.36812499165534973 -0.9086250066757202 -0.15564300119876862 -0.3875260055065155
          -0.5956569910049438 0.18944300711154938 -0.7805799841880798 -0.9832289814949036 0.09745100140571594 0.15415799617767334
          -0.1246889978647232 -0.9574940204620361 -0.260111004114151 -0.582880973815918 0.45512300729751587 0.6731370091438293
          -0.4035559892654419 -0.8567600250244141 0.32109901309013367 -0.562932014465332 -0.8014159798622131 -0.20208700001239777
          0.22159500420093536 -0.9751390218734741 -0.00010599999950500205 -0.5629330277442932 -0.8014159798622131 0.20208799839019775
          -0.4005190134048462 -0.8561009764671326 -0.32661399245262146 -0.29582300782203674 0.9552379846572876 -0.003097000066190958
          -0.5842519998550415 0.45333999395370483 -0.6731510162353516 -0.07817500084638596 0.2855589985847473 0.9551669955253601
          -0.1197350025177002 0.0002690000110305846 0.9928060173988342 0.18915799260139465 -0.8720409870147705 0.4514020085334778
          -0.26186901330947876 -0.9651029706001282 -0.0007929999846965075 0.18596599996089935 -0.8702179789543152 -0.45622000098228455
          -0.12944699823856354 0.006128000095486641 -0.9915670156478882 -0.669389009475708 0.5128179788589478 0.5375279784202576
          -0.9252259731292725 0.37941598892211914 -0.0009629999985918403 -0.08417099714279175 0.287663996219635 -0.9540259838104248
          -0.6688839793205261 0.5118579864501953 -0.5390679836273193 -0.577347993850708 -0.5071790218353271 0.6398739814758301
          -0.8808010220527649 -0.4734860062599182 -0.0009420000133104622 -0.5761330127716064 -0.5075640082359314 -0.6406639814376831
          <InformationKey name="L2_NORM_RANGE" location="vtkDataArray" length="2">
            <Value index="0">
              0.99999933353
            </Value>
            <Value index="1">
              1.0000006471
            </Value>
          </InformationKey>
        </DataArray>
      </PointData>
      <CellData>
      </CellData>
      <Points>
        <DataArray type="Float32" Name="Points" NumberOfComponents="3" format="ascii" RangeMin="0.002433216374833914" RangeMax="0.057476423887881954">
          0.01233499962836504 -0.001348000019788742 0.00011899999663000926 0.011837000027298927 -0.0009710000013001263 0.008088000118732452
          0.0015379999531432986 0.001883000019006431 0.00009699999645818025 0.013814999721944332 0.0014189999783411622 0.009682999923825264
          0.01336199976503849 -0.0005029999883845448 0.00011999999696854502 0.011837000027298927 -0.0009710000013001263 -0.007899000309407711
          0.013814999721944332 0.0014189999783411622 -0.00949500035494566 0.008715000003576279 0.0003809999907389283 0.016380999237298965
          0.0035459999926388264 0.0021059999708086252 0.02041500061750412 -0.008310999721288681 0.004217000212520361 0.004900999832898378
          -0.008345999754965305 0.00443999981507659 0.00009699999645818025 -0.008538000285625458 0.004472999833524227 0.01424300018697977
          -0.004807000048458576 0.004358000122010708 0.020524000748991966 0.008715000003576279 0.0003809999907389283 -0.016193000599741936
          0.0035459999926388264 0.0021059999708086252 -0.02022700011730194 -0.008310999721288681 0.004217000212520361 -0.004712000023573637
          -0.008538000285625458 0.004472999833524227 -0.01405400037765503 -0.004807000048458576 0.004358000122010708 -0.020336000248789787
          0.013938999734818935 0.0027520000003278255 0.00012099999730708078 0.013020000420510769 0.0033889999613165855 0.010359999723732471
          0.009951000101864338 0.0032369999680668116 0.017396999523043633 0.013020000420510769 0.0033889999613165855 -0.010172000154852867
          0.009951000101864338 0.0032369999680668116 -0.017209000885486603 0.0038759999442845583 0.005675999913364649 0.021111000329256058
          -0.010494000278413296 0.0074269999749958515 0.0050409999676048756 -0.010495999827980995 0.007333000190556049 0.00009699999645818025
          -0.010494000278413296 0.0074269999749958515 -0.004852999933063984 -0.004530999809503555 0.008251000195741653 0.02126000076532364
          -0.010689999908208847 0.005588000174611807 0.015984000638127327 -0.010888000018894672 0.008623000234365463 0.009495999664068222
          0.0038759999442845583 0.005675999913364649 -0.020921999588608742 -0.010689999908208847 0.005588000174611807 -0.01579499989748001
          -0.004530999809503555 0.008251000195741653 -0.021071000024676323 -0.010888000018894672 0.008623000234365463 -0.00930699985474348
          0.01642400026321411 0.009176000021398067 0.0001230000052601099 0.015079000033438206 0.008817999623715878 0.010002000257372856
          0.009173000231385231 0.005617000162601471 0.016964999958872795 0.015079000033438206 0.008817999623715878 -0.009813999757170677
          0.009173000231385231 0.005617000162601471 -0.016776999458670616 0.004794999957084656 0.008526000194251537 0.019213000312447548
          -0.008601999841630459 0.012210000306367874 0.006436999887228012 -0.008210999891161919 0.01209999993443489 0.00009899999713525176
          -0.008601999841630459 0.012210000306367874 -0.006248000077903271 -0.0035729999653995037 0.010692999698221684 0.02012600004673004
          -0.00801599957048893 0.01100900024175644 0.019036000594496727 -0.00990500021725893 0.01307000033557415 0.009794999845325947
          0.004794999957084656 0.008526000194251537 -0.01902499981224537 -0.00801599957048893 0.01100900024175644 -0.01884699985384941
          -0.0035729999653995037 0.010692999698221684 -0.019937999546527863 -0.00990500021725893 0.01307000033557415 -0.009607000276446342
          0.017761999741196632 0.011598999612033367 0.00012399999832268804 0.017191000282764435 0.011501999571919441 0.01105399988591671
          0.010685999877750874 0.010715000331401825 0.01761299930512905 0.017191000282764435 0.011501999571919441 -0.010866000317037106
          0.010685999877750874 0.010715000331401825 -0.01742500066757202 0.0069240001030266285 0.012102999724447727 0.019300999119877815
          -0.004978000186383724 0.017549000680446625 0.006647999864071608 -0.006401999853551388 0.01835699938237667 0.010238000191748142
          -0.004391999915242195 0.01742500066757202 0.00010199999815085903 -0.004978000186383724 0.017549000680446625 -0.006459999829530716
          -0.006401999853551388 0.01835699938237667 -0.010049000382423401 -0.0007929999846965075 0.015043999999761581 0.020269999280571938
          -0.004234000109136105 0.016953999176621437 0.020663000643253326 -0.009464999660849571 0.014766000211238861 0.01715799979865551
          -0.009971000254154205 0.013431999832391739 0.021014999598264694 -0.007151000201702118 0.01697400026023388 0.025110000744462013
          -0.013143000192940235 0.020035000517964363 0.00381799996830523 0.0069240001030266285 0.012102999724447727 -0.019113000482320786
          -0.004234000109136105 0.016953999176621437 -0.02047399990260601 -0.0007929999846965075 0.015043999999761581 -0.020082000643014908
          -0.009971000254154205 0.013431999832391739 -0.020826999098062515 -0.009464999660849571 0.014766000211238861 -0.01696999929845333
          -0.007151000201702118 0.01697400026023388 -0.024921000003814697 -0.013143000192940235 0.020035000517964363 -0.003628999926149845
          0.018688999116420746 0.01450200006365776 0.0001250000059371814 0.017988000065088272 0.014569000340998173 0.011254999786615372
          0.013074999675154686 0.012635000050067902 0.01863900013267994 0.017988000065088272 0.014569000340998173 -0.011067000217735767
          0.013074999675154686 0.012635000050067902 -0.018449999392032623 0.00821600016206503 0.013930999673902988 0.021330999210476875
          -0.003684000112116337 0.022369999438524246 0.008449999615550041 -0.004672999959439039 0.021460000425577164 0.010985000059008598
          -0.0026209999341517687 0.02133299969136715 0.00010299999848939478 -0.003684000112116337 0.022369999438524246 -0.008262000046670437
          -0.004672999959439039 0.021460000425577164 -0.01079699955880642 0.001917000045068562 0.017224999144673347 0.02235499955713749
          -0.0018279999494552612 0.018439000472426414 0.019971000030636787 -0.006393999792635441 0.02092299982905388 0.020018000155687332
          -0.013547999784350395 0.022293999791145325 0.02318600006401539 -0.014325999654829502 0.020270999521017075 0.017255999147892
          -0.014581000432372093 0.01551700010895729 0.02479499951004982 -0.013357999734580517 0.014636999927461147 0.010611999779939651
          -0.009802999906241894 0.01999799907207489 0.023850999772548676 -0.014348000288009644 0.017186999320983887 0.02169100008904934
          -0.015696000307798386 0.0170460008084774 0.000097999996796716 -0.0221950002014637 0.011150999926030636 0.00520200002938509
          -0.018905000761151314 0.024157000705599785 0.00009899999713525176 -0.012206999585032463 0.0234570000320673 0.007801000028848648
          0.00821600016206503 0.013930999673902988 -0.021143000572919846 -0.0018279999494552612 0.018439000472426414 -0.01978199928998947
          0.001917000045068562 0.017224999144673347 -0.022166000679135323 -0.006393999792635441 0.02092299982905388 -0.019828999415040016
          -0.014325999654829502 0.020270999521017075 -0.01706700026988983 -0.013547999784350395 0.022293999791145325 -0.02299799956381321
          -0.014581000432372093 0.01551700010895729 -0.024606000632047653 -0.013357999734580517 0.014636999927461147 -0.010424000211060047
          -0.014348000288009644 0.017186999320983887 -0.02150299958884716 -0.009802999906241894 0.01999799907207489 -0.02366200089454651
          -0.0221950002014637 0.011150999926030636 -0.0050130002200603485 -0.012206999585032463 0.0234570000320673 -0.007612999994307756
          0.006957999896258116 0.018720999360084534 0.00010299999848939478 0.014069000259041786 0.015785999596118927 0.018895000219345093
          0.008744999766349792 0.01777699962258339 0.022357000038027763 0.014069000259041786 0.015785999596118927 -0.018706999719142914
          0.008744999766349792 0.01777699962258339 -0.022168999537825584 0.0017010000301524997 0.01991800032556057 0.022492999210953712
          -0.008914999663829803 0.028862999752163887 0.016070999205112457 -0.005743000190705061 0.022016000002622604 0.014178000390529633
          -0.009445000439882278 0.0271029993891716 0.010142999701201916 -0.002337000099942088 0.021547000855207443 0.017187999561429024
          -0.005743000190705061 0.022016000002622604 -0.013989999890327454 -0.008914999663829803 0.028862999752163887 -0.015883000567555428
          -0.009445000439882278 0.0271029993891716 -0.009955000132322311 -0.002337000099942088 0.021547000855207443 -0.017000000923871994
          -0.010112999938428402 0.024103999137878418 0.021299000829458237 -0.008551999926567078 0.025767000392079353 0.01846200041472912
          -0.024017000570893288 0.03711500018835068 0.03212599828839302 -0.017153000459074974 0.0247809998691082 0.02115599997341633
          -0.011916999705135822 0.0259380005300045 0.021338000893592834 -0.025462999939918518 0.019026000052690506 0.012718000449240208
          -0.02253199927508831 0.0177800003439188 0.015548000112175941 -0.02200300060212612 0.027459999546408653 0.02538600005209446
          -0.017129000276327133 0.02421100065112114 0.012755000032484531 -0.014426999725401402 0.013620000332593918 0.012075000442564487
          -0.0267379991710186 0.016598999500274658 0.017116999253630638 -0.012640000320971012 0.021330999210476875 0.02637000009417534
          -0.014437999576330185 0.020431000739336014 0.024056000635027885 -0.013375000096857548 0.02515600062906742 0.024393999949097633
          -0.022415999323129654 0.01522899977862835 0.00009699999645818025 -0.02233700081706047 0.010439000092446804 0.006787000223994255
          -0.03022100031375885 0.021452000364661217 0.000097999996796716 -0.020855000242590904 0.022475000470876694 0.005044999998062849
          -0.018417000770568848 0.02033100090920925 0.008383000269532204 -0.016954999417066574 0.02287299931049347 0.010483000427484512
          -0.020855000242590904 0.022475000470876694 -0.004856000188738108 -0.018417000770568848 0.02033100090920925 -0.008194999769330025
          -0.016954999417066574 0.02287299931049347 -0.010293999686837196 -0.012896000407636166 0.024097999557852745 0.011429999954998493
          0.0017010000301524997 0.01991800032556057 -0.022305000573396683 -0.010112999938428402 0.024103999137878418 -0.021111000329256058
          -0.008551999926567078 0.025767000392079353 -0.01827399991452694 -0.02253199927508831 0.0177800003439188 -0.015359999611973763
          -0.025462999939918518 0.019026000052690506 -0.012529999949038029 -0.017153000459074974 0.0247809998691082 -0.02096799947321415
          -0.02200300060212612 0.027459999546408653 -0.02519799955189228 -0.017129000276327133 0.02421100065112114 -0.012567000463604927
          -0.024017000570893288 0.03711500018835068 -0.031881000846624374 -0.011916999705135822 0.0259380005300045 -0.021150000393390656
          -0.014426999725401402 0.013620000332593918 -0.011886999942362309 -0.0267379991710186 0.016598999500274658 -0.01692800037562847
          -0.014437999576330185 0.020431000739336014 -0.023868000134825706 -0.012640000320971012 0.021330999210476875 -0.02618199959397316
          -0.013375000096857548 0.02515600062906742 -0.024205999448895454 -0.02233700081706047 0.010439000092446804 -0.006599000189453363
          -0.012896000407636166 0.024097999557852745 -0.011241000145673752 -0.029071999713778496 0.03679199889302254 0.02694699913263321
          -0.015405000187456608 0.02637599967420101 0.0139979999512434 -0.029071999713778496 0.03679199889302254 -0.026701999828219414
          -0.015405000187456608 0.02637599967420101 -0.01380900014191866 -0.02807600051164627 0.035342998802661896 0.035583000630140305
          -0.03002999909222126 0.034446001052856445 0.02767699956893921 -0.02814199961721897 0.01836800016462803 0.010342000052332878
          -0.029822999611496925 0.01583000086247921 0.009790999814867973 -0.028960999101400375 0.012751000002026558 0.016874000430107117
          -0.024647999554872513 0.020168999210000038 0.008932000026106834 -0.023925000801682472 0.009573999792337418 0.013395000249147415
          -0.02302199974656105 0.013217000290751457 0.005417000036686659 -0.025381000712513924 0.013648999854922295 0.00009600000339560211
          -0.02302199974656105 0.013217000290751457 -0.0052280002273619175 -0.028255999088287354 0.022265000268816948 0.004275000188499689
          -0.03938400000333786 0.01713700033724308 0.0000779999973019585 -0.029569000005722046 0.01954299956560135 0.004160999786108732
          -0.028255999088287354 0.022265000268816948 -0.00408599991351366 -0.029569000005722046 0.01954299956560135 -0.003973000217229128
          -0.024647999554872513 0.020168999210000038 -0.00874400045722723 -0.029822999611496925 0.01583000086247921 -0.009602000005543232
          -0.02814199961721897 0.01836800016462803 -0.010153000243008137 -0.028960999101400375 0.012751000002026558 -0.0166849996894598
          -0.02807600051164627 0.035342998802661896 -0.03533799946308136 -0.03002999909222126 0.034446001052856445 -0.027432000264525414
          -0.023925000801682472 0.009573999792337418 -0.013206999748945236 -0.031176000833511353 0.017138000577688217 0.004337000194936991
          -0.031215999275445938 0.015521000139415264 0.005067999940365553 -0.028046000748872757 0.012679999694228172 0.007722000125795603
          -0.03279399871826172 0.012613000348210335 0.0000940000027185306 -0.028046000748872757 0.012679999694228172 -0.007534000091254711
          -0.031215999275445938 0.015521000139415264 -0.004879999905824661 -0.04673299938440323 0.013271999545395374 0.00011999999696854502
          -0.031176000833511353 0.017138000577688217 -0.004149000160396099 -0.04261799901723862 0.010351999662816525 0.0033539999276399612
          -0.03569300100207329 0.012331999838352203 0.004728000145405531 -0.04574799910187721 0.0060640000738203526 0.0026459998916834593
          -0.04631499946117401 0.006136000156402588 0.00013800000306218863 -0.04574799910187721 0.0060640000738203526 -0.002363000065088272
          -0.03569300100207329 0.012331999838352203 -0.004538999870419502 -0.049557000398635864 0.012041999958455563 0.003389999968931079
          -0.05057699978351593 0.011552000418305397 0.00012700000661425292 -0.04261799901723862 0.010351999662816525 -0.003071000101044774
          -0.049557000398635864 0.012041999958455563 -0.003106999909505248 -0.04958299919962883 0.00930199958384037 0.003924999851733446
          -0.04876000061631203 0.007581999991089106 0.00011999999696854502 -0.04958299919962883 0.00930199958384037 -0.0036410000175237656
          <InformationKey name="L2_NORM_RANGE" location="vtkDataArray" length="2">
            <Value index="0">
              0.0024332163748
            </Value>
            <Value index="1">
              0.057476423888
            </Value>
          </InformationKey>
        </DataArray>
      </Points>
      <Verts>
        <DataArray type="Int64" Name="connectivity" format="ascii" RangeMin="1e+299" RangeMax="-1e+299">
        </DataArray>
        <DataArray type="Int64" Name="offsets" format="ascii" RangeMin="1e+299" RangeMax="-1e+299">
        </DataArray>
      </Verts>
      <Lines>
        <DataArray type="Int64" Name="connectivity" format="ascii" RangeMin="1e+299" RangeMax="-1e+299">