<?xml version="1.0"?>
<VTKFile type="PolyData" version="0.1" byte_order="LittleEndian" header_type="UInt32" compressor="vtkZLibDataCompressor">
  <PolyData>
    <Piece NumberOfPoints="200" NumberOfVerts="0" NumberOfLines="0" NumberOfStrips="0" NumberOfPolys="60">
      <PointData Normals="Normals">
        <DataArray type="Float32" Name="Normals" NumberOfComponents="3" format="ascii" RangeMin="1" RangeMax="1">
          0 -1 0 0 -1 0
          0 -1 0 0 -1 0
          0 -1 0 0 -1 0
          0 -1 0 0 -1 0
          0 -1 0 0 -1 0
          0 -1 0 0 -1 0
          0 -1 0 0 -1 0
          0 -1 0 0 -1 0
          0 -1 0 0 -1 0
          0 -1 0 0 -1 0
          0 -1 0 0 -1 0
          0 -1 0 0 -1 0
          0 -1 0 0 -1 0
          0 -1 0 0 -1 0
          0 -1 0 0 -1 0
          0 -1 0 0 -1 0
          0 -1 0 0 -1 0
          0 -1 0 0 -1 0
          0 -1 0 0 -1 0
          0 -1 0 0 -1 0
          0 -1 0 0 -1 0
          0 -1 0 0 -1 0
          0 -1 0 0 -1 0
          0 -1 0 0 -1 0
          0 -1 0 0 -1 0
          0 -1 0 0 -1 0
          0 -1 0 0 -1 0
          0 -1 0 0 -1 0
          0 -1 0 0 -1 0
          0 -1 0 0 -1 0
          0 -1 0 0 -1 0
          0 -1 0 0 -1 0
          0 -1 0 0 -1 0
          0 -1 0 0 -1 0
          0 -1 0 0 -1 0
          0 -1 0 0 -1 0
          0 -1 0 0 -1 0
          0 -1 0 0 -1 0
          0 -1 0 0 -1 0
          0 -1 0 0 -1 0
          0 -1 0 0 -1 0
          0 -1 0 0 -1 0
          0 -1 0 0 -1 0
          0 -1 0 0 -1 0
          0 -1 0 0 -1 0
          0 -1 0 0 -1 0
          0 -1 0 0 -1 0
          0 -1 0 0 -1 0
          0 -1 0 0 -1 0
          0 -1 0 0 -1 0
          0 -1 0 0 -1 0
          0 -1 0 0 -1 0
          0 -1 0 0 -1 0
          0 -1 0 0 -1 0
          0 -1 0 0 -1 0
          0 -1 0 0 -1 0
          0 -1 0 0 -1 0
          0 -1 0 0 -1 0
          0 -1 0 0 -1 0
          0 -1 0 0 -1 0
          0 -1 0 0 -1 0
          0 -1 0 0 -1 0
          0 -1 0 0 -1 0
          0 -1 0 0 -1 0
          0 -1 0 0 -1 0
          0 -1 0 0 -1 0
          0 -1 0 0 -1 0
          0 -1 0 0 -1 0
          0 -1 0 0 -1 0
          0 -1 0 0 -1 0
          0 -1 0 0 -1 0
          0 -1 0 0 -1 0
          0 -1 0 0 -1 0
          0 -1 0 0 -1 0
          0 -1 0 0 -1 0
          0 -1 0 0 -1 0
          0 -1 0 0 -1 0
          0 -1 0 0 -1 0
          0 -1 0 0 -1 0
          0 -1 0 0 -1 0
          0 -1 0 0 -1 0
          0 -1 0 0 -1 0
          0 -1 0 0 -1 0
          0 -1 0 0 -1 0
          0 -1 0 0 -1 0
          0 -1 0 0 -1 0
          0 -1 0 0 -1 0
          0 -1 0 0 -1 0
          0 -1 0 0 -1 0
          0 -1 0 0 -1 0
          0 -1 0 0 -1 0
          0 -1 0 0 -1 0
          0 -1 0 0 -1 0
          0 -1 0 0 -1 0
          0 -1 0 0 -1 0
          0 -1 0 0 -1 0
          0 -1 0 0 -1 0
          0 -1 0 0 -1 0
          0 -1 0 0 -1 0
          0 -1 0 0 -1 0
          <InformationKey name="L2_NORM_RANGE" location="vtkDataArray" length="2">
            <Value index="0">
              1
            </Value>
            <Value index="1">
              1
            </Value>
          </InformationKey>
        </DataArray>
      </PointData>
      <CellData>
      </CellData>
      <Points>
        <DataArray type="Float32" Name="Points" NumberOfComponents="3" format="ascii" RangeMin="5.551119755337213e-17" RangeMax="0.5830951956177974">
          -0.30000001192092896 0 0.5 -0.30000001192092896 0 0.4000000059604645
          -0.20000000298023224 0 0.5 -0.20000000298023224 0 0.4000000059604645
          -0.20000000298023224 0 0.5 -0.20000000298023224 0 0.4000000059604645
          -0.10000000149011612 0 0.5 -0.10000000149011612 0 0.4000000059604645
          -0.10000000149011612 0 0.5 -0.10000000149011612 0 0.4000000059604645
          5.551119755337213e-17 0 0.5 5.551119755337213e-17 0 0.4000000059604645
          5.551119755337213e-17 0 0.5 5.551119755337213e-17 0 0.4000000059604645
          0.10000000149011612 0 0.5 0.10000000149011612 0 0.4000000059604645
          0.10000000149011612 0 0.5 0.10000000149011612 0 0.4000000059604645
          0.20000000298023224 0 0.5 0.20000000298023224 0 0.4000000059604645
          -0.20000000298023224 0 0.4000000059604645 -0.20000000298023224 0 0.30000001192092896
          -0.10000000149011612 0 0.4000000059604645 -0.10000000149011612 0 0.30000001192092896
          -0.10000000149011612 0 0.4000000059604645 -0.10000000149011612 0 0.30000001192092896
          5.551119755337213e-17 0 0.4000000059604645 5.551119755337213e-17 0 0.30000001192092896
          5.551119755337213e-17 0 0.4000000059604645 5.551119755337213e-17 0 0.30000001192092896
          0.10000000149011612 0 0.4000000059604645 0.10000000149011612 0 0.30000001192092896
          0.10000000149011612 0 0.4000000059604645 0.10000000149011612 0 0.30000001192092896
          0.20000000298023224 0 0.4000000059604645 0.20000000298023224 0 0.30000001192092896
          0.20000000298023224 0 0.4000000059604645 0.20000000298023224 0 0.30000001192092896
          0.30000001192092896 0 0.4000000059604645 0.30000001192092896 0 0.30000001192092896
          -0.30000001192092896 0 0.30000001192092896 -0.30000001192092896 0 0.20000000298023224
          -0.20000000298023224 0 0.30000001192092896 -0.20000000298023224 0 0.20000000298023224
          -0.20000000298023224 0 0.30000001192092896 -0.20000000298023224 0 0.20000000298023224
          -0.10000000149011612 0 0.30000001192092896 -0.10000000149011612 0 0.20000000298023224
          -0.10000000149011612 0 0.30000001192092896 -0.10000000149011612 0 0.20000000298023224
          5.551119755337213e-17 0 0.30000001192092896 5.551119755337213e-17 0 0.20000000298023224
          5.551119755337213e-17 0 0.30000001192092896 5.551119755337213e-17 0 0.20000000298023224
          0.10000000149011612 0 0.30000001192092896 0.10000000149011612 0 0.20000000298023224
          0.10000000149011612 0 0.30000001192092896 0.10000000149011612 0 0.20000000298023224
          0.20000000298023224 0 0.30000001192092896 0.20000000298023224 0 0.20000000298023224
          -0.20000000298023224 0 0.20000000298023224 -0.20000000298023224 0 0.10000000149011612
          -0.10000000149011612 0 0.20000000298023224 -0.10000000149011612 0 0.10000000149011612
          -0.10000000149011612 0 0.20000000298023224 -0.10000000149011612 0 0.10000000149011612
          5.551119755337213e-17 0 0.20000000298023224 5.551119755337213e-17 0 0.10000000149011612
          5.551119755337213e-17 0 0.20000000298023224 5.551119755337213e-17 0 0.10000000149011612
          0.10000000149011612 0 0.20000000298023224 0.10000000149011612 0 0.10000000149011612
          0.10000000149011612 0 0.20000000298023224 0.10000000149011612 0 0.10000000149011612
          0.20000000298023224 0 0.20000000298023224 0.20000000298023224 0 0.10000000149011612
          0.20000000298023224 0 0.20000000298023224 0.20000000298023224 0 0.10000000149011612
          0.30000001192092896 0 0.20000000298023224 0.30000001192092896 0 0.10000000149011612
          -0.30000001192092896 0 0.10000000149011612 -0.30000001192092896 0 0
          -0.20000000298023224 0 0.10000000149011612 -0.20000000298023224 0 0
          -0.20000000298023224 0 0.10000000149011612 -0.20000000298023224 0 0
          -0.10000000149011612 0 0.10000000149011612 -0.10000000149011612 0 0
          -0.10000000149011612 0 0.10000000149011612 -0.10000000149011612 0 0
          5.551119755337213e-17 0 0.10000000149011612 5.551119755337213e-17 0 0
          5.551119755337213e-17 0 0.10000000149011612 5.551119755337213e-17 0 0
          0.10000000149011612 0 0.10000000149011612 0.10000000149011612 0 0
          0.10000000149011612 0 0.10000000149011612 0.10000000149011612 0 0
          0.20000000298023224 0 0.10000000149011612 0.20000000298023224 0 0
          -0.20000000298023224 0 0 -0.20000000298023224 0 -0.10000000149011612
          -0.10000000149011612 0 0 -0.10000000149011612 0 -0.10000000149011612
          -0.10000000149011612 0 0 -0.10000000149011612 0 -0.10000000149011612
          5.551119755337213e-17 0 0 5.551119755337213e-17 0 -0.10000000149011612
          5.551119755337213e-17 0 0 5.551119755337213e-17 0 -0.10000000149011612
          0.10000000149011612 0 0 0.10000000149011612 0 -0.10000000149011612
          0.10000000149011612 0 0 0.10000000149011612 0 -0.10000000149011612
          0.20000000298023224 0 0 0.20000000298023224 0 -0.10000000149011612
          0.20000000298023224 0 0 0.20000000298023224 0 -0.10000000149011612
          0.30000001192092896 0 0 0.30000001192092896 0 -0.10000000149011612
          -0.30000001192092896 0 -0.10000000149011612 -0.30000001192092896 0 -0.20000000298023224
          -0.20000000298023224 0 -0.10000000149011612 -0.20000000298023224 0 -0.20000000298023224
          -0.20000000298023224 0 -0.10000000149011612 -0.20000000298023224 0 -0.20000000298023224
          -0.10000000149011612 0 -0.10000000149011612 -0.10000000149011612 0 -0.20000000298023224
          -0.10000000149011612 0 -0.10000000149011612 -0.10000000149011612 0 -0.20000000298023224
          5.551119755337213e-17 0 -0.10000000149011612 5.551119755337213e-17 0 -0.20000000298023224
          5.551119755337213e-17 0 -0.10000000149011612 5.551119755337213e-17 0 -0.20000000298023224
          0.10000000149011612 0 -0.10000000149011612 0.10000000149011612 0 -0.20000000298023224
          0.10000000149011612 0 -0.10000000149011612 0.10000000149011612 0 -0.20000000298023224
          0.20000000298023224 0 -0.10000000149011612 0.20000000298023224 0 -0.20000000298023224
          -0.20000000298023224 0 -0.20000000298023224 -0.20000000298023224 0 -0.30000001192092896
          -0.10000000149011612 0 -0.20000000298023224 -0.10000000149011612 0 -0.30000001192092896
          -0.10000000149011612 0 -0.20000000298023224 -0.10000000149011612 0 -0.30000001192092896
          5.551119755337213e-17 0 -0.20000000298023224 5.551119755337213e-17 0 -0.30000001192092896
          5.551119755337213e-17 0 -0.20000000298023224 5.551119755337213e-17 0 -0.30000001192092896
          0.10000000149011612 0 -0.20000000298023224 0.10000000149011612 0 -0.30000001192092896
          0.10000000149011612 0 -0.20000000298023224 0.10000000149011612 0 -0.30000001192092896
          0.20000000298023224 0 -0.20000000298023224 0.20000000298023224 0 -0.30000001192092896
          0.20000000298023224 0 -0.20000000298023224 0.20000000298023224 0 -0.30000001192092896
          0.30000001192092896 0 -0.20000000298023224 0.30000001192092896 0 -0.30000001192092896
          -0.30000001192092896 0 -0.30000001192092896 -0.30000001192092896 0 -0.4000000059604645
          -0.20000000298023224 0 -0.30000001192092896 -0.20000000298023224 0 -0.4000000059604645
          -0.20000000298023224 0 -0.30000001192092896 -0.20000000298023224 0 -0.4000000059604645
          -0.10000000149011612 0 -0.30000001192092896 -0.10000000149011612 0 -0.4000000059604645
          -0.10000000149011612 0 -0.30000001192092896 -0.10000000149011612 0 -0.4000000059604645
          5.551119755337213e-17 0 -0.30000001192092896 5.551119755337213e-17 0 -0.4000000059604645
          5.551119755337213e-17 0 -0.30000001192092896 5.551119755337213e-17 0 -0.4000000059604645
          0.10000000149011612 0 -0.30000001192092896 0.10000000149011612 0 -0.4000000059604645
          0.10000000149011612 0 -0.30000001192092896 0.10000000149011612 0 -0.4000000059604645
          0.20000000298023224 0 -0.30000001192092896 0.20000000298023224 0 -0.4000000059604645
          -0.20000000298023224 0 -0.4000000059604645 -0.20000000298023224 0 -0.5
          -0.10000000149011612 0 -0.4000000059604645 -0.10000000149011612 0 -0.5
          -0.10000000149011612 0 -0.4000000059604645 -0.10000000149011612 0 -0.5
          5.551119755337213e-17 0 -0.4000000059604645 5.551119755337213e-17 0 -0.5
          5.551119755337213e-17 0 -0.4000000059604645 5.551119755337213e-17 0 -0.5
          0.10000000149011612 0 -0.4000000059604645 0.10000000149011612 0 -0.5
          0.10000000149011612 0 -0.4000000059604645 0.10000000149011612 0 -0.5
          0.20000000298023224 0 -0.4000000059604645 0.20000000298023224 0 -0.5
          0.20000000298023224 0 -0.4000000059604645 0.20000000298023224 0 -0.5
          0.30000001192092896 0 -0.4000000059604645 0.30000001192092896 0 -0.5
          <InformationKey name="L2_NORM_RANGE" location="vtkDataArray" length="2">
            <Value index="0">
              5.5511197553e-17
            </Value>
            <Value index="1">
              0.58309519562
            </Value>
          </InformationKey>
        </DataArray>
      </Points>
      <Verts>
        <DataArray type="Int64" Name="connectivity" format="ascii" RangeMin="1e+299" RangeMax="-1e+299">
        </DataArray>
        <DataArray type="Int64" Name="offsets" format="ascii" RangeMin="1e+299" RangeMax="-1e+299">
        </DataArray>
      </Verts>
      <Lines>
        <DataArray type="Int64" Name="connectivity" format="ascii" RangeMin="1e+299" RangeMax="-1e+299">
        </DataArray>
        <DataArray type="Int64" Name="offsets" format="ascii" RangeMin="1e+299" RangeMax="-1e+299">
        </DataArray>
      </Lines>
      <Strips>
        <DataArray type="Int64" Name="connectivity" format="ascii" RangeMin="1e+299" RangeMax="-1e+299">
        </DataArray>
        <DataArray type="Int64" Name="offsets" format="ascii" RangeMin="1e+299" RangeMax="-1e+299">
        </DataArray>
      </Strips>
      <Polys>
        <DataArray type="Int32" Name="connectivity" format="ascii" RangeMin="0" RangeMax="199">
          3 0 1 3 2 0
          11 8 9 11 10 8
          19 16 17 19 18 16
          23 20 21 23 22 20
          31 28 29 31 30 28
          39 36 37 39 38 36
          43 40 41 43 42 40
          51 48 49 51 50 48
          59 56 57 59 58 56
          63 60 61 63 62 60
          71 68 69 71 70 68
          79 76 77 79 78 76
          83 80 81 83 82 80
          91 88 89 91 90 88
          99 96 97 99 98 96
          103 100 101 103 102 100
          111 108 109 111 110 108
          119 116 117 119 118 116
          123 120 121 123 122 120
          131 128 129 131 130 128
          139 136 137 139 138 136
          143 140 141 143 142 140
          151 148 149 151 150 148
          159 156 157 159 158 156
          163 160 161 163 162 160
          171 168 169 171 170 168
          179 176 177 179 178 176
          183 180 181 183 182 180
          191 188 189 191 190 188
          199 196 197 199 198 196
        </DataArray>
        <DataArray type="Int32" Name="offsets" format="ascii" RangeMin="3" RangeMax="180">
          3 6 9 12 15 18
          21 24 27 30 33 36
          39 42 45 48 51 54
          57 60 63 66 69 72
          75 78 81 84 87 90
          93 96 99 102 105 108
          111 114 117 120 123 126
          129 132 135 138 141 144
          147 150 153 156 159 162
          165 168 171 174 177 180
        </DataArray>
      </Polys>
    </Piece>
  </PolyData>
</VTKFile>
