<?xml version="1.0"?>
<VTKFile type="PolyData" version="0.1" byte_order="LittleEndian" header_type="UInt32" compressor="vtkZLibDataCompressor">
  <PolyData>
    <Piece NumberOfPoints="203" NumberOfVerts="0" NumberOfLines="0" NumberOfStrips="0" NumberOfPolys="398">
      <PointData Normals="Normals">
        <DataArray type="Float32" Name="Normals" NumberOfComponents="3" format="ascii" RangeMin="0.9999993302748176" RangeMax="1.0000006848443093">
          0.7023500204086304 0.603007972240448 -0.37826600670814514 0.7315170168876648 0.18964800238609314 0.6549180150032043
          0.8017820119857788 -0.5199840068817139 -0.2945530116558075 0.7332460284233093 0.4533900022506714 -0.5067409873008728
          0.5085930228233337 0.8516150116920471 -0.12682899832725525 0.2644039988517761 0.7926290035247803 0.5493900179862976
          0.340395987033844 -0.19677799940109253 0.9194610118865967 0.22024500370025635 -0.9278380274772644 0.3010129928588867
          0.5302489995956421 -0.8147609829902649 -0.2345229983329773 0.5021470189094543 0.8149660229682922 -0.2892720103263855
          0.8599179983139038 0.3729659914970398 -0.3484779894351959 0.7794659733772278 -0.5503489971160889 -0.29924601316452026
          0.11059799790382385 0.9543989896774292 0.27729299664497375 0.0235849991440773 0.2239460051059723 0.9743160009384155
          0.15232600271701813 -0.7079529762268066 0.6896370053291321 -0.04776399955153465 -0.9272210001945496 0.3714570105075836
          0.006881999783217907 -0.9999669790267944 -0.004279000218957663 0.020244000479578972 -0.9991739988327026 0.03523100167512894
          0.10940799862146378 0.9889280200004578 0.10025600343942642 0.581849992275238 0.7867529988288879 -0.20608200132846832
          0.9939320087432861 -0.08355099707841873 -0.07154899835586548 0.49031201004981995 -0.8706070184707642 0.04045499861240387
          0.07115799933671951 -0.9918850064277649 0.10535699874162674 -0.2499299943447113 0.6649420261383057 0.7038379907608032
          -0.31029200553894043 -0.3752079904079437 0.873462975025177 -0.1969829946756363 -0.9746350049972534 -0.10622899979352951
          -0.4360339939594269 -0.860850989818573 0.2623170018196106 -0.6146079897880554 -0.2798430025577545 0.7375270128250122
          -0.37870699167251587 -0.9222549796104431 0.07763099670410156 -0.440095990896225 -0.8665750026702881 0.23529599606990814
          -0.5188069939613342 0.7573990225791931 0.3964659869670868 -0.4885599911212921 0.5390139818191528 0.6861289739608765
          0.22570499777793884 0.9733260273933411 -0.04115299880504608 0.6188510060310364 0.7736719846725464 -0.1358480006456375
          0.9975100159645081 -0.041331999003887177 0.057137999683618546 0.4223119914531708 -0.8907920122146606 0.16775700449943542
          0.12634100019931793 -0.9755430221557617 0.17987200617790222 -0.23456500470638275 -0.9240559935569763 0.3018290102481842
          -0.7492640018463135 -0.646960973739624 -0.14157900214195251 -0.8086860179901123 -0.5453479886054993 -0.22050699591636658
          -0.9676820039749146 -0.10380200296640396 0.22981999814510345 -0.8646299839019775 -0.5017629861831665 -0.025492999702692032
          -0.9272680282592773 -0.345537006855011 0.1441500037908554 -0.5468649864196777 0.8369799852371216 -0.020065000280737877
          0.3178560137748718 0.9463130235671997 -0.058809999376535416 0.7114790081977844 0.701708972454071 0.037450000643730164
          0.924032986164093 -0.05041399970650673 0.3789750039577484 0.14893700182437897 -0.9265959858894348 0.34530898928642273
          0.07928299903869629 -0.9743679761886597 0.21052399277687073 -0.7357620000839233 -0.6696739792823792 -0.10094799846410751
          0.05062999948859215 -0.9657449722290039 0.25450798869132996 -0.9691619873046875 0.19099299609661102 -0.15571600198745728
          -0.9494680166244507 0.12235099822282791 -0.2890329957008362 -0.958407998085022 0.19878199696540833 -0.20479300618171692
          -0.8823829889297485 0.2542459964752197 -0.3959270119667053 -0.5442969799041748 0.8106420040130615 -0.21587200462818146
          0.34384799003601074 0.9387620091438293 -0.022244999185204506 0.7432069778442383 0.6347370147705078 0.21154899895191193
          0.8781489729881287 0.14625699818134308 0.45548200607299805 0.43569400906562805 -0.7291200160980225 0.5277829766273499
          -0.2433069944381714 -0.9506580233573914 0.19248999655246735 -0.2519240081310272 -0.9071279764175415 0.3371250033378601
          -0.3552820086479187 -0.9087749719619751 -0.21886800229549408 -0.05169399827718735 -0.9870730042457581 0.1517069935798645
          -0.728676974773407 0.10907799750566483 -0.6761159896850586 -0.5354639887809753 0.7772009968757629 -0.3305090069770813
          -0.4181709885597229 0.821977972984314 -0.3866330087184906 -0.3144879937171936 0.8161110281944275 -0.48482999205589294
          0.2974250018596649 0.9460330009460449 -0.1286820024251938 0.7553369998931885 0.5515509843826294 0.3539179861545563
          0.7233750224113464 0.6395559906959534 0.26018500328063965 0.8029680252075195 0.47083601355552673 0.3654539883136749
          0.8734449744224548 0.02140899933874607 0.48645201325416565 0.6172239780426025 -0.5413789749145508 0.5709149837493896
          -0.31195101141929626 -0.8983039855957031 0.30941298604011536 -0.26732999086380005 -0.9580280184745789 0.10352399945259094
          -0.48563599586486816 -0.8712999820709229 0.07066799700260162 -0.7340710163116455 0.17331700026988983 -0.6565819978713989
          -0.577771008014679 -0.7536770105361938 -0.313291996717453 -0.2491530030965805 0.8116139769554138 -0.5283979773521423
          0.33979299664497375 0.9359660148620605 -0.09223899990320206 0.3895510137081146 0.9186509847640991 -0.06580200046300888
          0.8142619729042053 0.48947399854660034 0.31207799911499023 0.8008080124855042 0.4846450090408325 0.3518880009651184
          0.724029004573822 0.655493974685669 0.21472899615764618 0.8579679727554321 0.28415700793266296 0.4279550015926361
          0.714972972869873 -0.39247700572013855 0.5785980224609375 -0.21920199692249298 -0.9460859894752502 0.23847800493240356
          -0.689191997051239 -0.7172359824180603 -0.10289400070905685 -0.6638110280036926 -0.6584470272064209 -0.3546850085258484
          -0.4390510022640228 -0.8981050252914429 -0.025325000286102295 -0.23931899666786194 0.8037139773368835 -0.5447660088539124
          -0.7360820174217224 0.16111600399017334 -0.6574389934539795 0.420397013425827 0.8983449935913086 -0.1274459958076477
          0.7268120050430298 0.6546679735183716 0.207736998796463 0.8704969882965088 0.14303800463676453 0.4709309935569763
          -0.09546399861574173 -0.9536569714546204 0.2853510081768036 0.6611260175704956 -0.4988290071487427 0.5604299902915955
          -0.6476879715919495 -0.754239022731781 -0.10781200230121613 -0.7616159915924072 0.22830399870872498 -0.6064800024032593
          -0.7726200222969055 -0.5549730062484741 -0.3083229959011078 0.4410719871520996 0.8944740295410156 -0.07329899817705154
          -0.16305799782276154 0.9063869714736938 -0.3897109925746918 0.7212709784507751 0.6674829721450806 0.18502700328826904
          0.725974977016449 -0.4979430139064789 0.474355012178421 0.9149770140647888 0.24433599412441254 0.32111799716949463
          -0.6749539971351624 -0.7377449870109558 -0.01298999972641468 -0.10103599727153778 -0.9579570293426514 0.26853400468826294
          -0.8688570261001587 -0.4519270062446594 -0.20211300253868103 -0.8262019753456116 0.30054301023483276 -0.47651201486587524
          0.6758400201797485 0.7168790102005005 0.17124499380588531 0.44162699580192566 0.89717698097229 -0.006225999910384417
          -0.0666780024766922 0.9635080099105835 -0.2592430114746094 -0.044617000967264175 -0.9608380198478699 0.27349600195884705
          0.8108090162277222 -0.45250600576400757 0.3712500035762787 0.8475940227508545 0.5111100077629089 0.14265799522399902
          0.8649939894676208 0.4629470109939575 0.19356200098991394 0.951649010181427 0.1357550024986267 0.2755639851093292
          -0.914214015007019 -0.37875300645828247 -0.1440819948911667 -0.6912189722061157 -0.7203909754753113 0.05704199895262718
          -0.8720070123672485 0.33224400877952576 -0.359468013048172 -0.2171729952096939 0.9418519735336304 -0.25641798973083496
          0.5635070204734802 0.8246340155601501 0.04938099905848503 -0.6057249903678894 -0.7897869944572449 0.09660600125789642
          0.17441000044345856 -0.9394580125808716 0.2949579954147339 0.8435490131378174 -0.4568130075931549 0.28239598870277405
          0.9716789722442627 0.06855600327253342 0.2261430025100708 0.8668299913406372 0.4667910039424896 0.17524899542331696
          0.5714730024337769 0.8161380290985107 0.08565399795770645 -0.9064890146255493 0.37379398941993713 -0.19635799527168274
          -0.933131992816925 -0.3582330048084259 -0.03056900016963482 -0.2176620066165924 0.9632319808006287 -0.15750400722026825
          -0.6874769926071167 -0.7190709710121155 0.10155200213193893 0.007745000068098307 -0.9717199802398682 0.23601000010967255
          0.8267049789428711 -0.5306730270385742 0.1869339942932129 0.9918559789657593 0.015130000188946724 0.12646299600601196
          0.811007022857666 0.584975004196167 -0.008446999825537205 0.4936459958553314 0.8691239953041077 0.03062400035560131
          -0.9280819892883301 0.37235599756240845 0.0037950000260025263 -0.2578490078449249 0.9655900001525879 -0.033914998173713684
          -0.957584023475647 -0.26834800839424133 0.10498599708080292 -0.6651239991188049 -0.7259119749069214 0.1751060038805008
          0.12942099571228027 -0.9724479913711548 0.19389699399471283 0.8449980020523071 -0.5210700035095215 0.12026599794626236
          0.9984859824180603 0.02567099966108799 0.04864199832081795 0.5298089981079102 0.8234059810638428 -0.20323799550533295
          0.6776189804077148 0.7333229780197144 -0.0554019995033741 0.5979580283164978 0.7937719821929932 -0.11122900247573853
          0.983027994632721 0.18336300551891327 -0.005876999814063311 -0.21754799783229828 0.9704210162162781 -0.10467100143432617
          -0.9256839752197266 0.33024799823760986 0.18451300263404846 -0.9350299835205078 -0.27814599871635437 0.21989500522613525
          -0.6453909873962402 -0.7544940114021301 0.11920499801635742 0.25953400135040283 -0.9555090069770813 0.14015799760818481
          0.8740739822387695 -0.47819000482559204 0.08560600131750107 0.9888949990272522 0.1327349990606308 -0.0668490007519722
          0.7995280027389526 0.5996170043945312 0.03485900163650513 -0.13721400499343872 0.9616829752922058 0.2373580038547516
          0.6242730021476746 0.7737389802932739 0.10775700211524963 0.8987280130386353 -0.431210994720459 -0.07965400069952011
          -0.8859109878540039 0.3044469952583313 0.3499639928340912 -0.8539779782295227 -0.40103501081466675 0.3315019905567169
          -0.6039199829101562 -0.6865350008010864 0.4049080014228821 -0.460440993309021 -0.857591986656189 0.2291949987411499
          0.21677400171756744 -0.9762060046195984 0.0055740000680089 0.9213079810142517 -0.30705299973487854 -0.23855699598789215
          0.9640859961509705 0.09738100320100784 -0.24709099531173706 0.8659989833831787 0.49965399503707886 -0.0197720006108284
          -0.16893799602985382 0.9418579936027527 0.29045501351356506 0.5723670125007629 0.7940769791603088 0.20454199612140656
          0.38131600618362427 -0.9156010150909424 -0.12756800651550293 -0.8258000016212463 0.29095199704170227 0.483117014169693
          -0.5142329931259155 -0.6722019910812378 0.5326430201530457 -0.842930018901825 -0.15556600689888 0.5150430202484131
          -0.427511990070343 -0.7270039916038513 0.5373070240020752 -0.16873699426651 -0.9791439771652222 0.1131569966673851
          0.25556498765945435 -0.7067220211029053 -0.6597200036048889 0.8002039790153503 -0.1850000023841858 -0.57048100233078
          0.2460869997739792 -0.06800200045108795 -0.966858983039856 0.9267879724502563 0.11854100227355957 -0.35638800263404846
          0.8149610161781311 0.5760210156440735 -0.06355299800634384 -0.3672559857368469 0.8266109824180603 0.4264239966869354
          0.5851359963417053 0.808775007724762 0.05915199965238571 0.0013229999458417296 0.9836490154266357 -0.180090993642807
          -0.04006100073456764 -0.7804279923439026 -0.623960018157959 -0.8339809775352478 0.31670498847961426 0.45185500383377075
          -0.7489870190620422 -0.5563830137252808 0.3598009943962097 -0.3399620056152344 -0.931007981300354 0.13285599648952484
          -0.8884519934654236 -0.0009040000149980187 0.45896899700164795 -0.04911699891090393 0.08994299918413162 -0.9947350025177002
          0.4863080084323883 0.36270999908447266 -0.794950008392334 0.051426000893116 -0.18489600718021393 -0.9814119935035706
          0.32057899236679077 0.7155629992485046 -0.6206439733505249 -0.6382570266723633 0.7092329859733582 -0.299358993768692
          -0.14186899363994598 0.39329901337623596 -0.9083989858627319 -0.0773869976401329 -0.785427987575531 -0.6140959858894348
          -0.9672809839248657 0.23589199781417847 -0.09339000284671783 -0.45972099900245667 -0.45184600353240967 -0.7645210027694702
          -0.0647829994559288 0.2148679941892624 -0.9744920134544373 0.08665300160646439 -0.2098979949951172 -0.9738759994506836
          -0.570688009262085 0.7145709991455078 -0.4046030044555664 -0.570688009262085 0.7145709991455078 -0.4046030044555664
          -0.570688009262085 0.7145709991455078 -0.4046030044555664
          <InformationKey name="L2_NORM_RANGE" location="vtkDataArray" length="2">
            <Value index="0">
              0.99999933027
            </Value>
            <Value index="1">
              1.0000006848
            </Value>
          </InformationKey>
        </DataArray>
      </PointData>
      <CellData>
      </CellData>
      <Points>
        <DataArray type="Float32" Name="Points" NumberOfComponents="3" format="ascii" RangeMin="0.000024779024053663068" RangeMax="0.12718935291750158">
          -0.015460999682545662 0.019582999870181084 0.11275000125169754 -0.014507999643683434 0.018686000257730484 0.12007199972867966
          -0.014286999590694904 0.01563500054180622 0.11284500360488892 -0.01781100034713745 0.017402999103069305 0.10774900019168854
          -0.01822900027036667 0.022388000041246414 0.11409900337457657 -0.023962000384926796 0.02376299910247326 0.12032800167798996
          -0.02020600065588951 0.019840000197291374 0.12192700058221817 -0.01835400052368641 0.015128999948501587 0.11657200008630753
          -0.01807199977338314 0.01510700024664402 0.10678499937057495 -0.021973999217152596 0.02273000031709671 0.10920800268650055
          -0.019473999738693237 0.01642400026321411 0.10423500090837479 -0.019747000187635422 0.014565999619662762 0.10164599865674973
          -0.026413999497890472 0.025085000321269035 0.1173200011253357 -0.024940000846982002 0.020920999348163605 0.12295299768447876
          -0.02289300039410591 0.01635799929499626 0.12020000070333481 -0.026241999119520187 0.015057999640703201 0.11823400110006332
          -0.022424999624490738 0.014090999960899353 0.10770700126886368 -0.02432199940085411 0.014046000316739082 0.10269100219011307
          -0.02970300056040287 0.025913000106811523 0.11139199882745743 -0.02415500022470951 0.022167999297380447 0.10371500253677368
          -0.019669000059366226 0.015672000125050545 0.09914200007915497 -0.021237000823020935 0.01432000007480383 0.09622900187969208
          -0.025265000760555267 0.013465000316500664 0.09613499790430069 -0.029045000672340393 0.023225000128149986 0.12102700024843216
          -0.0287299994379282 0.017942000180482864 0.12170299887657166 -0.029311999678611755 0.015079000033438206 0.10859300196170807
          -0.03487800061702728 0.014556000009179115 0.11594299972057343 -0.03627200052142143 0.016336999833583832 0.11642999947071075
          -0.03034299984574318 0.015035999938845634 0.10322800278663635 -0.03183000162243843 0.013880999758839607 0.09641099721193314
          -0.03777899965643883 0.025398999452590942 0.11154299974441528 -0.03477000072598457 0.024348000064492226 0.11589399725198746
          -0.03152700141072273 0.026081999763846397 0.10481400042772293 -0.02596299909055233 0.02204499952495098 0.09821899980306625
          -0.019773999229073524 0.01513999979943037 0.09480500221252441 -0.02060299925506115 0.013753999955952168 0.0928099974989891
          -0.025136999785900116 0.012438000179827213 0.09166699647903442 -0.03323100134730339 0.012052999809384346 0.08893699944019318
          -0.03901299834251404 0.016831999644637108 0.10936400294303894 -0.039159998297691345 0.02029700018465519 0.1020210012793541
          -0.04031199961900711 0.019422000274062157 0.1107650026679039 -0.03627999871969223 0.01943800039589405 0.09699399769306183
          -0.0350399985909462 0.014333000406622887 0.08874399960041046 -0.03827200084924698 0.025756999850273132 0.10464999824762344
          -0.030215999111533165 0.024911999702453613 0.09773299843072891 -0.025390999391674995 0.020469000563025475 0.09185300022363663
          -0.018682999536395073 0.013279000297188759 0.08987700194120407 -0.020333999767899513 0.012755000032484531 0.0893929973244667
          -0.024927999824285507 0.011326000094413757 0.08670800179243088 -0.03443299978971481 0.009933999739587307 0.08336299657821655
          -0.029333999380469322 0.010484999977052212 0.08500099927186966 -0.039181001484394073 0.02371400035917759 0.10352399945259094
          -0.03717600181698799 0.022110000252723694 0.09690800309181213 -0.03530599921941757 0.01942400075495243 0.08837500214576721
          -0.034627001732587814 0.016877999529242516 0.08244399726390839 -0.03654700145125389 0.02483000047504902 0.09786900132894516
          -0.02908799983561039 0.02464599907398224 0.09125299751758575 -0.02278199978172779 0.01969200000166893 0.08649799972772598
          -0.016582999378442764 0.011742999777197838 0.0845630019903183 -0.016573000699281693 0.010106000117957592 0.08353900164365768
          -0.02108200080692768 0.009789000265300274 0.08067599684000015 -0.018490999937057495 0.009077000431716442 0.08257000148296356
          -0.02679000049829483 0.008837999776005745 0.07615599781274796 -0.02348100021481514 0.010034999810159206 0.07889699935913086
          -0.028025999665260315 0.01445700041949749 0.07499700039625168 -0.033275000751018524 0.023453999310731888 0.08885899931192398
          -0.031261999160051346 0.021554000675678253 0.08332400023937225 -0.02544499933719635 0.019209999591112137 0.07521100342273712
          -0.02593100070953369 0.02235100045800209 0.08444499969482422 -0.017580000683665276 0.014639000408351421 0.08208400011062622
          -0.01819399930536747 0.01707099936902523 0.08052799850702286 -0.015270999632775784 0.012531000189483166 0.08208499848842621
          -0.012870999984443188 0.009882999584078789 0.07856100052595139 -0.013406000100076199 0.007373000029474497 0.07835599780082703
          -0.01592699997127056 0.0058189998380839825 0.07737000286579132 -0.020826999098062515 0.008177000097930431 0.07244200259447098
          -0.017784999683499336 0.00752299977466464 0.07492999732494354 -0.023489000275731087 0.012928999960422516 0.0701339989900589
          -0.022856000810861588 0.008263000287115574 0.07050199806690216 -0.020813999697566032 0.01789099909365177 0.07110399752855301
          -0.02057499997317791 0.01950399950146675 0.07735999673604965 -0.01759199984371662 0.017681999132037163 0.07276599854230881
          -0.013116000220179558 0.011258999817073345 0.0777679979801178 -0.013446999713778496 0.012129000388085842 0.07730700075626373
          -0.014531999826431274 0.015097999945282936 0.07531999796628952 -0.008841999806463718 0.007877999916672707 0.07264000177383423
          -0.00865199975669384 0.006378999911248684 0.07188300043344498 -0.012155000120401382 0.0015300000086426735 0.07048500329256058
          -0.01369599997997284 0.0047519998624920845 0.06914699822664261 -0.018185000866651535 0.007056000176817179 0.06560900062322617
          -0.016011999920010567 0.006111000198870897 0.06719700247049332 -0.016499999910593033 0.015521000139415264 0.0665929988026619
          -0.01881599985063076 0.011719999834895134 0.06523100286722183 -0.013922999612987041 0.015556000173091888 0.06809499859809875
          -0.011137999594211578 0.013062999583780766 0.07031700015068054 -0.004259999841451645 0.005408000200986862 0.06612399965524673
          -0.007482999935746193 -0.00011899999663000926 0.06488999724388123 -0.0042849997989833355 0.0030739998910576105 0.06572899967432022
          -0.010276000015437603 0.003108999924734235 0.06227999925613403 -0.013774000108242035 0.00871300045400858 0.059154998511075974
          -0.013602999970316887 0.005628999788314104 0.05995099991559982 -0.009790999814867973 0.012147000059485435 0.06191499903798103
          -0.01145699992775917 0.012512000277638435 0.060506001114845276 -0.006504000164568424 0.00965999998152256 0.06448599696159363
          0.00006399999983841553 0.000058000001445179805 0.05848599970340729 -0.0000470000013592653 0.003254000097513199 0.05923299863934517
          -0.006928000133484602 0.00021800000104121864 0.0561240017414093 -0.003916999790817499 -0.0026199999265372753 0.05767099931836128
          -0.009939000010490417 0.002612000098451972 0.05387600138783455 -0.009743000380694866 0.006862000096589327 0.052689000964164734
          -0.0020179999992251396 0.007422999944537878 0.05791400000452995 -0.005022999830543995 0.009665999561548233 0.05621200054883957
          -0.0076060001738369465 0.010521999560296535 0.05377599969506264 -0.000805000017862767 -0.005034000147134066 0.049313001334667206
          0.0038109999150037766 -0.002461999887600541 0.04974300041794777 0.0005499999970197678 0.005795999895781279 0.053741998970508575
          0.0017869999865069985 0.003975000232458115 0.04986400157213211 0.003203999949619174 -0.00016500000492669642 0.05106600001454353
          -0.006736000068485737 -0.000024000000848900527 0.04558100178837776 -0.0033539999276399612 -0.0033199999015778303 0.04804699867963791
          -0.006357999984174967 0.004222999792546034 0.04520399868488312 -0.0026680000592023134 0.008023999631404877 0.0442189984023571
          0.00023099999816622585 0.006885000038892031 0.044943999499082565 -0.0023060000967234373 -0.005741999950259924 0.04086900129914284
          0.0017979999538511038 -0.007300000172108412 0.042396001517772675 0.006219999864697456 -0.004127999767661095 0.042181000113487244
          0.006668999791145325 -0.0014059999957680702 0.04232500120997429 0.005113000050187111 0.002862999914214015 0.04185200110077858
          0.0024220000486820936 0.006167999934405088 0.04055200144648552 -0.004170999862253666 0.0024560000747442245 0.03760800138115883
          -0.004317000042647123 -0.0028860000893473625 0.037689000368118286 -0.0003870000073220581 0.00722600007429719 0.03933599963784218
          -0.0015369999455288053 -0.006430000066757202 0.03671799972653389 0.0033030000049620867 -0.009217999875545502 0.0365150012075901
          0.006763999816030264 -0.006713999900966883 0.03519200161099434 0.008429000154137611 -0.00267699989490211 0.034056998789310455
          0.007600000128149986 0.001838000025600195 0.0310869999229908 0.0035830000415444374 0.0054060001857578754 0.0307839997112751
          -0.0031930000986903906 0.0015589999966323376 0.029910000041127205 0.0009580000187270343 0.006453999783843756 0.030389999970793724
          -0.0037350000347942114 -0.0047599999234080315 0.03007899969816208 -0.0014690000098198652 -0.008469999767839909 0.02929599955677986
          0.0036949999630451202 -0.010935000143945217 0.02988399937748909 0.007849999703466892 -0.007683000061661005 0.02933100052177906
          0.008860999718308449 -0.0016009999671950936 0.028512999415397644 0.0038479999639093876 0.005458000116050243 0.028233999386429787
          0.007240000180900097 0.0014819999923929572 0.020972000434994698 0.003071000101044774 0.003135999897494912 0.024586999788880348
          0.009422999806702137 -0.001699000014923513 0.02138100005686283 0.0004830000107176602 0.006080999970436096 0.026211999356746674
          -0.003938000183552504 0.00038400001358240843 0.02400900050997734 -0.004226000048220158 -0.005444000009447336 0.022328000515699387
          -0.0016189999878406525 -0.01032199990004301 0.020760999992489815 0.0040480000898242 -0.01232299953699112 0.022406000643968582
          0.008566999807953835 -0.008778000250458717 0.02239299938082695 0.009875999763607979 -0.0036039999686181545 0.015046999789774418
          0.007261999882757664 0.0012659999774768949 0.014278000220656395 -0.00009200000204145908 0.00608400022611022 0.021443000063300133
          0.00368899991735816 0.005619000177830458 0.014192000031471252 0.008910000324249268 -0.009727000258862972 0.015615000389516354
          -0.00533400010317564 0.00034699999378062785 0.019349999725818634 -0.0059529999271035194 -0.004610000178217888 0.017199000343680382
          -0.0031930000986903906 -0.007579999975860119 0.011723999865353107 -0.001521000056527555 -0.011672000400722027 0.010383999906480312
          0.004939999897032976 -0.013585000298917294 0.014487000182271004 0.007817000150680542 -0.00880999956279993 0.00826600007712841
          0.009944000281393528 -0.004602999892085791 0.008483000099658966 0.00801900029182434 0.001158999977633357 0.007958999834954739
          -0.0008689999813213944 0.00773000018671155 0.014550000429153442 0.004360999912023544 0.005007000174373388 0.008194999769330025
          0.005187999922782183 -0.012563999742269516 0.009259999729692936 -0.007664000149816275 0.0010939999483525753 0.0125730000436306
          -0.007428999990224838 -0.007544999942183495 0.009903999976813793 -0.008969999849796295 -0.004164999816566706 0.010355000384151936
          -0.004747000057250261 -0.010712999850511551 0.008332000114023685 -0.0013689999468624592 -0.012974999845027924 0.006785999983549118
          0.006512000225484371 -0.010545000433921814 0.000674000009894371 0.007594999857246876 -0.007499000057578087 -0.0009660000214353204
          0.00648800004273653 -0.002145000034943223 -0.0008650000090710819 0.008322999812662601 -0.0010659999679774046 0.006310000084340572
          0.006173999980092049 0.0044189998880028725 0.00458399998024106 -0.003924999851733446 0.009104999713599682 0.009351000189781189
          0.0028409999795258045 0.008143000304698944 0.0048039997927844524 -0.0035649999044835567 0.010734000243246555 0.0047439998015761375
          0.0017600000137463212 -0.012102000415325165 0.0031010000966489315 -0.010224999859929085 0.0026279999874532223 0.0071840002201497555
          -0.012272999621927738 -0.009093999862670898 0.0029319999739527702 -0.0066650002263486385 -0.011926000006496906 0.0046430001966655254
          -0.012773999944329262 -0.002736999886110425 0.004354000091552734 -0.000018000000636675395 -0.00001700000029813964 -9.999999974752427e-7
          0.006473999936133623 0.0026549999602138996 -0.00031599999056197703 0.0008069999748840928 -0.004759000148624182 0.00037900000461377203
          0.00267699989490211 0.006554000079631805 0.0006970000104047358 -0.010281000286340714 0.004954999778419733 0.002858000108972192
          -0.0019460000330582261 0.004803000018000603 0.000707999977748841 -0.005948000121861696 -0.011521999724209309 0.001560000004246831
          -0.014198999851942062 -0.0020129999611526728 -0.000299000006634742 -0.01363999955356121 -0.008983000181615353 -0.0005150000215508044
          -0.007323000114411116 0.000375000003259629 -0.0011840000515803695 -0.00646300008520484 -0.006895999889820814 -0.0008350000134669244
          -0.004406999796628952 -0.002804999938234687 0.03817899897694588 -0.006922000087797642 0.0002880000101868063 0.04600600153207779
          -0.0069240001030266285 -0.00016900000628083944 0.04530499875545502
          <InformationKey name="L2_NORM_RANGE" location="vtkDataArray" length="2">
            <Value index="0">
              2.4779024054e-05
            </Value>
            <Value index="1">
              0.12718935292
            </Value>
          </InformationKey>
        </DataArray>
      </Points>
      <Verts>
        <DataArray type="Int64" Name="connectivity" format="ascii" RangeMin="1e+299" RangeMax="-1e+299">
        </DataArray>
        <DataArray type="Int64" Name="offsets" format="ascii" RangeMin="1e+299" RangeMax="-1e+299">
        </DataArray>
      </Verts>
      <Lines>
        <DataArray type="Int64" Name="connectivity" format="ascii" RangeMin="1e+299" RangeMax="-1e+299">
        </DataArray>
        <DataArray type="Int64" Name="offsets" format="ascii" RangeMin="1e+299" RangeMax="-1e+299">
        </DataArray>
      </Lines>
      <Strips>
        <DataArray type="Int64" Name="connectivity" format="ascii" RangeMin="1e+299" RangeMax="-1e+299">
        </DataArray>
        <DataArray type="Int64" Name="offsets" format="ascii" RangeMin="1e+299" RangeMax="-1e+299">
        </DataArray>
      </Strips>
      <Polys>
        <DataArray type="Int32" Name="connectivity" format="ascii" RangeMin="0" RangeMax="202">
          0 1 2 3 0 2
          0 4 1 0 2 1
          3 4 0 5 6 1
          7 1 6 2 1 7
          5 1 4 8 2 7
          3 2 8 3 9 4
          9 3 10 11 10 3
          11 3 8 4 9 12
          4 12 5 13 5 12
          5 13 6 14 6 13
          7 6 14 7 14 15
          8 7 16 7 15 16
          8 16 17 8 17 11
          12 9 18 19 18 9
          9 10 19 19 10 20
          21 20 10 21 10 11
          11 17 22 11 22 21
          23 12 18 13 12 23
          23 24 13 24 14 13
          24 15 14 15 25 16
          15 26 25 27 26 15
          27 15 24 28 17 16
          28 16 25 29 22 17
          29 17 28 30 31 18
          19 32 18 23 18 31
          32 30 18 33 32 19
          19 20 33 33 20 34
          20 21 35 20 35 34
          21 22 36 21 36 35
          37 36 22 37 22 29
          31 24 23 31 27 24
          38 25 26 39 28 25