<?xml version="1.0"?>
<VTKFile type="PolyData" version="0.1" byte_order="LittleEndian" header_type="UInt32" compressor="vtkZLibDataCompressor">
  <PolyData>
    <Piece NumberOfPoints="264" NumberOfVerts="0" NumberOfLines="0" NumberOfStrips="0" NumberOfPolys="524">
      <PointData Normals="Normals">
        <DataArray type="Float32" Name="Normals" NumberOfComponents="3" format="ascii" RangeMin="0.9999994515243766" RangeMax="1.0000006548162852">
          -0.868690013885498 -0.2606160044670105 -0.42125698924064636 -0.6607139706611633 0.6393309831619263 -0.3933359980583191
          -0.9640439748764038 -0.10185900330543518 -0.24544799327850342 -0.7037799954414368 -0.7103840112686157 -0.006895000115036964
          -0.3032279908657074 -0.9364460110664368 0.17641499638557434 -0.39478498697280884 -0.9183890223503113 -0.026582999154925346
          -0.7977889776229858 -0.16727599501609802 -0.5792679786682129 -0.3387109935283661 0.7540410161018372 -0.5627589821815491
          -0.4687960147857666 0.8143960237503052 -0.34203699231147766 -0.3793329894542694 0.8785039782524109 -0.2904079854488373
          -0.3425300121307373 0.8892369866371155 -0.3032020032405853 -0.4434239864349365 0.853767991065979 -0.2728649973869324
          -0.9182109832763672 0.37129300832748413 -0.13795199990272522 0.12084700167179108 0.9877939820289612 -0.09828200191259384
          -0.8409090042114258 -0.5029569864273071 0.19976699352264404 0.1545339971780777 -0.9034129977226257 0.39995598793029785
          0.5990279912948608 -0.6773120164871216 0.42709898948669434 0.5518829822540283 -0.6184859871864319 0.559374988079071
          -0.6873360276222229 -0.543753981590271 -0.48156100511550903 -0.08247999846935272 -0.9602460265159607 0.26669299602508545
          0.10069499909877777 -0.9267659783363342 0.3618899881839752 -0.7326539754867554 0.11623100191354752 -0.6706029772758484
          0.10285700112581253 0.8244739770889282 -0.556473970413208 0.4646570086479187 0.8854809999465942 0.004114000126719475
          0.1511950045824051 0.9745839834213257 -0.1653040051460266 0.6210229992866516 0.7514830231666565 0.2227180004119873
          -0.4503220021724701 0.8205689787864685 -0.35196200013160706 -0.3127579987049103 0.899541974067688 -0.30497100949287415
          -0.39240899682044983 0.8653799891471863 -0.3116610050201416 -0.29828301072120667 0.9144840240478516 -0.27339598536491394
          -0.28404000401496887 0.9227690100669861 -0.2604199945926666 -0.37899601459503174 0.9008790254592896 -0.21160900592803955
          -0.15902599692344666 0.9499490261077881 -0.2689020037651062 -0.9594370126724243 0.22207100689411163 0.17367999255657196
          -0.27699100971221924 0.9595760107040405 -0.049897998571395874 -0.6149280071258545 0.7776650190353394 -0.13076700270175934
          -0.7931129932403564 0.5778710246086121 -0.19244800508022308 0.9331409931182861 0.17586399614810944 0.31356000900268555
          0.305186003446579 0.9480339884757996 -0.08995900303125381 -0.8737419843673706 -0.21172499656677246 0.4378899931907654
          -0.4838320016860962 -0.7367500066757202 0.47234201431274414 0.7124680280685425 -0.6149700284004211 0.33793699741363525
          0.8176259994506836 -0.44702601432800293 0.36284300684928894 -0.12464000284671783 -0.9461010098457336 0.29892900586128235
          0.3714529871940613 -0.9022669792175293 0.21894599497318268 0.31744301319122314 -0.7726460099220276 0.5497699975967407
          0.7078199982643127 -0.27970901131629944 0.6486560106277466 -0.5011090040206909 -0.8598219752311707 -0.09795700013637543
          0.11506500095129013 -0.8805220127105713 0.4598279893398285 -0.1090880036354065 -0.9595710039138794 0.2594670057296753
          -0.21621200442314148 -0.954255998134613 0.20651200413703918 0.16223399341106415 -0.81523197889328 0.5559470057487488
          0.061618998646736145 -0.9120630025863647 0.4053939878940582 0.2178719937801361 -0.8453750014305115 0.4877220094203949
          -0.9344009757041931 -0.0886629968881607 -0.34501299262046814 0.11688199639320374 0.9795770049095154 -0.16360799968242645
          -0.7023299932479858 0.6797019839286804 -0.21151499450206757 0.47898998856544495 0.874284029006958 0.07871700078248978
          0.5174279808998108 0.8543279767036438 0.048916999250650406 0.5032029747962952 0.8591110110282898 0.09335500001907349
          0.4782480001449585 0.8754730224609375 0.06947299838066101 0.46538299322128296 0.8757830262184143 0.12815000116825104
          0.24690000712871552 0.9676480293273926 -0.05193600058555603 0.17221100628376007 0.982213020324707 -0.07484400272369385
          0.5118229985237122 0.8166530132293701 0.2666729986667633 0.262347012758255 0.9645169973373413 -0.029683999717235565
          -0.3760179877281189 0.8206819891929626 -0.4302220046520233 -0.30737999081611633 0.8827300071716309 -0.3553929924964905
          -0.1738629937171936 0.9168069958686829 -0.35949400067329407 -0.14192000031471252 0.9474329948425293 -0.2867569923400879
          -0.9468780159950256 0.2860490083694458 -0.14696699380874634 -0.9511280059814453 -0.16722999513149261 0.25959500670433044
          -0.20058999955654144 0.9796749949455261 -0.0005130000063218176 0.020760999992489815 0.981810986995697 0.18872399628162384
          -0.48653900623321533 0.865559995174408 -0.11868300288915634 -0.3521150052547455 0.9344689846038818 -0.05275199934840202
          -0.07492800056934357 0.9891819953918457 0.12611599266529083 -0.8776029944419861 0.29457899928092957 -0.37820199131965637
          -0.3363800048828125 0.9354590177536011 -0.1084669977426529 -0.7058749794960022 0.35795798897743225 -0.6112340092658997
          -0.8783079981803894 0.20084400475025177 -0.4338630139827728 0.3429499864578247 0.9318900108337402 -0.11818200349807739
          0.9759780168533325 -0.025297999382019043 -0.21639500558376312 0.918366014957428 0.3921540081501007 -0.05308699980378151
          0.8960180282592773 -0.38561201095581055 -0.22012700140476227 -0.7553979754447937 -0.41157200932502747 0.5098850131034851
          -0.5807610154151917 -0.7846500277519226 0.21688799560070038 0.6641929745674133 -0.7387779951095581 0.11425799876451492
          0.7936689853668213 -0.5852879881858826 0.16591699421405792 0.016486000269651413 -0.9881539940834045 -0.15257899463176727
          -0.1640940010547638 -0.938389003276825 -0.3041369915008545 -0.3191770017147064 -0.9473260045051575 0.026436999440193176
          0.1867389976978302 -0.8593760132789612 -0.4760270118713379 0.4304429888725281 -0.79795902967453 -0.4218769967556
          0.22188399732112885 -0.6907309889793396 0.6882280111312866 0.8347139954566956 -0.029349999502301216 0.549901008605957
          -0.07270699739456177 -0.9822970032691956 0.1726440042257309 -0.44707199931144714 -0.8944609761238098 0.008116000331938267
          -0.18901599943637848 -0.9504730105400085 0.24672800302505493 -0.0599059984087944 -0.9374120235443115 0.34303000569343567
          0.054368000477552414 -0.5311110019683838 0.8455560207366943 0.022987000644207 -0.7547439932823181 0.6556169986724854
          0.19161400198936462 -0.8693100214004517 0.45561298727989197 0.05172999948263168 -0.7706320285797119 0.6351780295372009
          0.051339998841285706 -0.9135969877243042 0.4033670127391815 -0.7455570101737976 -0.6657750010490417 -0.029803000390529633
          -0.9594339728355408 -0.006099000107496977 -0.28186699748039246 -0.6785470247268677 -0.7327970266342163 -0.050829000771045685
          -0.5048509836196899 0.7354609966278076 -0.45190998911857605 -0.45103201270103455 0.8589419722557068 -0.24246500432491302
          -0.54475998878479 0.8311629891395569 -0.11137299984693527 0.33971500396728516 0.9370660185813904 0.08062700182199478
          0.4502840042114258 0.887965977191925 0.09359300136566162 0.08113700151443481 0.9917020201683044 0.0997219979763031
          -0.1002890020608902 0.9944249987602234 0.032561998814344406 0.3168269991874695 0.9427629709243774 0.1040169969201088
          0.49873998761177063 0.866461992263794 0.022407999262213707 0.52435702085495 0.8492900133132935 0.06128200143575668
          0.9287890195846558 -0.2731670141220093 0.25046101212501526 0.19953100383281708 0.9798309803009033 -0.010886999778449535
          -0.384101003408432 0.797569990158081 -0.46513301134109497 -0.2553060054779053 0.8945990204811096 -0.36675700545310974
          -0.3577359914779663 0.8682000041007996 -0.3438810110092163 -0.19966599345207214 0.9175220131874084 -0.3439269959926605
          -0.3299010097980499 0.8862800002098083 -0.3250730037689209 -0.8916820287704468 0.16907699406147003 -0.4199010133743286
          -0.8223580121994019 -0.4906249940395355 -0.2881210148334503 -0.7806389927864075 -0.3129369914531708 -0.5409939885139465
          0.09687499701976776 0.9951040148735046 -0.019598999992012978 0.07722199708223343 0.9399570226669312 0.3324419856071472
          -0.03428100049495697 0.9140040278434753 0.4042539894580841 -0.4262450039386749 0.8779839873313904 -0.217849999666214
          -0.3613309860229492 0.9269059896469116 0.1014150008559227 -0.7242770195007324 -0.19137300550937653 -0.6624199748039246
          0.031918998807668686 0.7887910008430481 -0.6138319969177246 0.23334500193595886 0.8858150243759155 -0.4011020064353943
          -0.3749769926071167 0.7349550127983093 -0.5650079846382141 -0.041273001581430435 0.33715400099754333 -0.9405450224876404
          -0.3941029906272888 0.12098000198602676 -0.9110689759254456 -0.26629701256752014 -0.22561900317668915 -0.9371140003204346
          -0.2159239947795868 0.9282580018043518 -0.30284398794174194 -0.21060800552368164 0.9489700198173523 -0.23473499715328217
          -0.13975000381469727 0.9544990062713623 -0.2634409964084625 -0.18312400579452515 0.9824389815330505 -0.03575799986720085
          -0.1347140073776245 0.9825829863548279 -0.1279979944229126 0.7263960242271423 0.6000360250473022 -0.33511999249458313
          0.2369150072336197 0.9703490138053894 -0.0478999987244606 0.7949029803276062 0.33063098788261414 -0.5087360143661499
          0.6262170076370239 0.05757800117135048 -0.7775200009346008 0.7482839822769165 0.46212100982666016 -0.47593599557876587
          0.6459439992904663 -0.6099110245704651 -0.4590910077095032 0.41702499985694885 -0.3013109862804413 -0.8574979901313782
          0.47404900193214417 -0.17584900557994843 -0.8627600073814392 -0.5193160176277161 -0.8468629717826843 -0.1146019995212555
          -0.06571699678897858 -0.8114960193634033 -0.5806499719619751 -0.1904889941215515 -0.7227330207824707 -0.6643580198287964
          -0.35263898968696594 -0.8175020217895508 -0.45534101128578186 0.05065099895000458 -0.4927160143852234 -0.8687149882316589
          -0.03755699843168259 -0.6396610140800476 -0.7677389979362488 0.2589460015296936 -0.5010560154914856 -0.8257660269737244
          0.2722890079021454 -0.8331459760665894 0.4813790023326874 0.08494500070810318 -0.9788789749145508 0.18595899641513824
          0.08274299651384354 -0.981660008430481 0.17174600064754486 -0.08376500010490417 -0.9882879853248596 0.1275559961795807
          0.017992999404668808 -0.9636949896812439 0.26639899611473083 -0.21758000552654266 -0.9684280157089233 0.12167999893426895
          -0.4331440031528473 -0.8968709707260132 0.08948899805545807 0.03678499907255173 -0.9405530095100403 0.33764898777008057
          0.1228019967675209 -0.9268940091133118 0.35466501116752625 -0.656129002571106 -0.7442929744720459 0.12459199875593185
          -0.5317239761352539 0.7393490076065063 -0.4130780100822449 -0.9972550272941589 -0.0032999999821186066 0.07397200167179108
          -0.20127899944782257 0.8959929943084717 -0.39583298563957214 -0.18070000410079956 0.9378299713134766 -0.2963489890098572
          -0.11422999948263168 0.9321249723434448 -0.3436479866504669 -0.06913000345230103 0.9953879714012146 -0.06651099771261215
          -0.0026680000592023134 0.9844470024108887 -0.17565999925136566 0.25102800130844116 0.9678099751472473 -0.018122000619769096
          0.4361959993839264 0.8995389938354492 -0.023731999099254608 0.6083419919013977 0.7917910218238831 0.054648999124765396
          0.5721520185470581 0.8201209902763367 0.006593000143766403 0.60800701379776 0.7926139831542969 -0.04572200030088425
          0.11436499655246735 -0.9498779773712158 0.2909500002861023 0.14505499601364136 -0.9809989929199219 0.12883900105953217
          0.12642699480056763 -0.9629380106925964 0.23825900256633759 0.9714919924736023 -0.1370909959077835 -0.19341599941253662
          0.24684999883174896 -0.9662579894065857 -0.07356099784374237 0.2564080059528351 -0.9664490222930908 0.015212999656796455
          0.641605019569397 0.7608129978179932 -0.09750200062990189 -0.44200098514556885 0.846405029296875 -0.29704201221466064
          -0.5399709939956665 -0.6402990221977234 -0.5463039875030518 -0.5966209769248962 -0.7137389779090881 -0.366907000541687
          -0.39513298869132996 -0.6227449774742126 -0.6753209829330444 -0.06608200073242188 0.9804329872131348 0.18542799353599548
          0.5778579711914062 0.7446889877319336 -0.3339439928531647 -0.4580099880695343 -0.6144840121269226 -0.6423670053482056
          -0.4613800048828125 -0.5143150091171265 -0.7229160070419312 0.5017300248146057 0.5169450044631958 -0.6935669779777527
          0.3244999945163727 -0.14365699887275696 -0.9349129796028137 0.5516679883003235 0.16211700439453125 -0.8181570172309875
          -0.036084000021219254 -0.6270300149917603 -0.7781590223312378 0.3150700032711029 -0.5117560029029846 -0.7992730140686035
          0.8278499841690063 0.29651299118995667 -0.47617799043655396 0.782293975353241 0.17012399435043335 -0.599228024482727
          0.7430049777030945 0.30021101236343384 -0.5981780290603638 0.3664740025997162 -0.17816700041294098 -0.9132109880447388
          0.6647329926490784 0.01604500040411949 -0.7469090223312378 0.30036699771881104 -0.3533869981765747 -0.8859440088272095
          0.2913399934768677 -0.3001540005207062 -0.9083110094070435 -0.18852299451828003 -0.6819170117378235 -0.7067170143127441
          -0.15576300024986267 -0.4429509937763214 -0.8829110264778137 -0.2913999855518341 -0.7124199867248535 -0.6383910179138184
          0.12106599658727646 -0.3699130117893219 -0.9211450219154358 0.010293000377714634 -0.49934500455856323 -0.8663420081138611
          -0.023771999403834343 -0.9996410012245178 0.012397999875247478 -0.3942970037460327 -0.9145659804344177 0.08998899906873703
          -0.4697740077972412 -0.8747810125350952 0.11861900240182877 -0.4983290135860443 -0.857450008392334 0.12824800610542297
          -0.4959709942340851 -0.8477990031242371 0.18775099515914917 -0.8667799830436707 -0.28475499153137207 0.40939900279045105
          0.21754400432109833 0.9233030080795288 -0.3165220022201538 -0.661899983882904 0.7489089965820312 0.031989000737667084
          0.07050800323486328 0.9354419708251953 -0.34637799859046936 0.07832899689674377 0.9712169766426086 -0.2249480038881302
          0.21822699904441833 0.9435650110244751 -0.24912400543689728 0.21684500575065613 0.971265971660614 -0.09808000177145004
          0.45159900188446045 0.8904060125350952 -0.05687699839472771 0.4817970097064972 0.8711190223693848 -0.09499000012874603
          0.211435005068779 -0.9771400094032288 0.02220899984240532 0.7091990113258362 0.6955779790878296 0.11492600291967392
          0.4861469864845276 -0.8707619905471802 -0.0737219974398613 0.9737190008163452 -0.2162099927663803 0.07159099727869034
          -0.16752000153064728 -0.9801589846611023 0.10594499856233597 0.16851699352264404 -0.9856860041618347 0.004933000076562166
          0.5060380101203918 0.8548229932785034 -0.11490499973297119 0.051874998956918716 -0.734387993812561 -0.6767449975013733
          0.49904701113700867 -0.46070700883865356 -0.7339630126953125 0.7042670249938965 -0.25634801387786865 -0.6620370149612427
          0.4618949890136719 -0.41850998997688293 -0.7819870114326477 -0.3039329946041107 -0.9494550228118896 0.0784820020198822
          -0.7032439708709717 -0.5796030163764954 0.41171398758888245 -0.7478749752044678 0.06983400136232376 0.6601560115814209
          -0.6654030084609985 0.48691800236701965 0.5658180117607117 0.535768985748291 0.8144840002059937 -0.22263500094413757
          0.6024550199508667 0.7497360110282898 -0.2737579941749573 0.4711419939994812 0.8537750244140625 -0.2215680032968521
          0.02713399939239025 0.9917110204696655 0.12559199333190918 0.3994799852371216 0.9053580164909363 -0.14402100443840027
          0.3296320140361786 0.9347299933433533 -0.13275299966335297 0.5766059756278992 0.8021659851074219 -0.15509499609470367
          0.6556900143623352 0.7502779960632324 -0.08457999676465988 0.6542450189590454 0.7353249788284302 0.1768060028553009
          0.5728579759597778 0.6259130239486694 0.529213011264801 0.6154850125312805 -0.3783299922943115 0.6914079785346985
          -0.5282949805259705 -0.7257440090179443 0.44068101048469543 -0.09115999937057495 -0.815792977809906 0.5711150169372559
          0.5989050269126892 -0.5340650081634521 -0.5967310070991516 -0.44325900077819824 0.03343600034713745 0.8957700133323669
          -0.34516099095344543 0.500307023525238 0.7940760254859924 0.30025601387023926 0.7358030080795288 0.6069930195808411
          0.6337739825248718 0.7546790242195129 -0.16967499256134033 0.6059120297431946 0.7938399910926819 -0.0518530011177063
          0.7283269762992859 0.683476984500885 0.04897899925708771 0.07298900187015533 -0.00962700042873621 0.9972860217094421
          <InformationKey name="L2_NORM_RANGE" location="vtkDataArray" length="2">
            <Value index="0">
              0.99999945152
            </Value>
            <Value index="1">
              1.0000006548
            </Value>
          </InformationKey>
        </DataArray>
      </PointData>
      <CellData>
      </CellData>
      <Points>
        <DataArray type="Float32" Name="Points" NumberOfComponents="3" format="ascii" RangeMin="0.4125065765630396" RangeMax="0.4908831084276271">
          -0.0027469999622553587 0.42861801385879517 0.07175199687480927 0.0004689999914262444 0.43701300024986267 0.06822200119495392
          0.0004910000134259462 0.42623499035835266 0.06502900272607803 0.0019160000374540687 0.42353498935699463 0.0632840022444725
          -0.0011549999471753836 0.4261229932308197 0.07443799823522568 -0.01287699956446886 0.4319309890270233 0.08890800178050995
          -0.01363999955356121 0.43488600850105286 0.08706899732351303 -0.019116999581456184 0.44381898641586304 0.09582400321960449
          0.007845000363886356 0.4344109892845154 0.05108499899506569 0.008763999678194523 0.4352799952030182 0.05166900157928467
          0.006876000203192234 0.43352898955345154 0.049988001585006714 0.005714999977499247 0.43273699283599854 0.04854699969291687
          0.0037640000227838755 0.42978501319885254 0.05041800066828728 0.007841000333428383 0.43845900893211365 0.06718199700117111
          0.0033279999624937773 0.4195829927921295 0.04931600019335747 0.013700000010430813 0.415802001953125 0.042020998895168304
          0.011962000280618668 0.4227679967880249 0.06252200156450272 -0.003874999936670065 0.4364030063152313 0.09685000032186508
          -0.026048000901937485 0.4373050034046173 0.10122100263834 -0.023003999143838882 0.4373359978199005 0.10859499871730804
          -0.01783600077033043 0.43569400906562805 0.10463699698448181 -0.039409998804330826 0.44970500469207764 0.11127199977636337
          -0.03598500043153763 0.45328301191329956 0.11166299879550934 -0.0313429981470108 0.4509370028972626 0.12021700292825699
          -0.022839000448584557 0.44676798582077026 0.1091269999742508 -0.0033309999853372574 0.4412049949169159 0.09483800083398819
          0.009457999840378761 0.4342299997806549 0.04833099991083145 0.009819000028073788 0.4352650046348572 0.05027899891138077
          0.008437000215053558 0.43343499302864075 0.04790399968624115 0.00712500000372529 0.43294399976730347 0.04793800041079521
          0.0074800001457333565 0.43261000514030457 0.04629699885845184 0.006221000105142593 0.4314729869365692 0.0425340011715889
          0.006957000121474266 0.4319179952144623 0.04430500045418739 0.0008200000156648457 0.41929399967193604 0.03660999983549118
          0.0064940000884234905 0.43081599473953247 0.03842199966311455 0.006622000131756067 0.43017199635505676 0.03334899991750717
          0.007034000009298325 0.4280740022659302 0.02065500058233738 0.01820399984717369 0.4318009912967682 0.05482200160622597
          0.014689999632537365 0.4360849857330322 0.05217599868774414 0.0012929999502375722 0.4167810082435608 0.03761700168251991
          0.002741999924182892 0.41488000750541687 0.038380999118089676 0.02104399912059307 0.41593000292778015 0.03261600062251091
          0.02028599940240383 0.42291900515556335 0.04291500151157379 0.007834999822080135 0.41213300824165344 0.03603599965572357
          0.01589599996805191 0.4115369915962219 0.03201499953866005 -0.016558999195694923 0.4370729923248291 0.10622700303792953
          -0.01830900087952614 0.4432939887046814 0.11404100060462952 -0.03324899822473526 0.43991100788116455 0.10946500301361084
          -0.019710000604391098 0.4364590048789978 0.10662899911403656 -0.031076999381184578 0.4403330087661743 0.1179099977016449
          -0.03327000141143799 0.44095900654792786 0.11897200345993042 -0.025617999956011772 0.4408009946346283 0.1166829988360405
          -0.030174000188708305 0.4406839907169342 0.11908499896526337 -0.01926399953663349 0.43767300248146057 0.10856799781322479
          -0.04482699930667877 0.44675201177597046 0.12201300263404846 -0.03814899921417236 0.4550729990005493 0.11326999962329865
          -0.041662998497486115 0.45420899987220764 0.11995100229978561 -0.034706000238657 0.4527139961719513 0.12221299856901169
          -0.032207001000642776 0.45125699043273926 0.12332499772310257 -0.03415999934077263 0.4526669979095459 0.12048300355672836
          -0.029851999133825302 0.4499109983444214 0.12173499912023544 -0.0232510007917881 0.4471360146999359 0.1174440011382103
          -0.022117000073194504 0.44691699743270874 0.11138000339269638 -0.0183470007032156 0.44609400629997253 0.10947199910879135
          -0.01460999995470047 0.44530901312828064 0.10755699872970581 -0.012497999705374241 0.4454199969768524 0.10367800295352936
          0.010352999903261662 0.43399500846862793 0.046845998615026474 0.00911800004541874 0.4330050051212311 0.045910000801086426
          0.01281800027936697 0.43438300490379333 0.04546400159597397 0.010672000236809254 0.4304260015487671 0.03876800090074539
          -0.0005670000100508332 0.4175960123538971 0.03262700140476227 -0.0007989999721758068 0.41586101055145264 0.0340690016746521
          0.010483999736607075 0.43131399154663086 0.029738999903202057 0.01194700039923191 0.4315289855003357 0.03230300173163414
          0.007799000013619661 0.43042901158332825 0.03132399916648865 0.008949999697506428 0.430961012840271 0.030559999868273735
          0.011919000186026096 0.42983299493789673 0.035270001739263535 0.00408599991351366 0.42344099283218384 0.024057000875473022
          0.011291000060737133 0.4317289888858795 0.022394999861717224 0.007563999854028225 0.42810800671577454 0.019220000132918358
          0.005929000210016966 0.4256249964237213 0.02153399959206581 0.019719000905752182 0.43197101354599 0.039473000913858414
          0.024702999740839005 0.4212009906768799 0.029009999707341194 0.024397000670433044 0.42565301060676575 0.03142299875617027
          0.02413499914109707 0.4193289875984192 0.028736000880599022 0.0005310000269673765 0.4153279960155487 0.03603300079703331
          0.00013899999612476677 0.41464200615882874 0.03441999852657318 0.01992800086736679 0.4139479994773865 0.03039800003170967
          0.021601000800728798 0.4159550070762634 0.030466999858617783 0.013757999986410141 0.4111669957637787 0.030233999714255333
          0.009758000262081623 0.4113459885120392 0.030772000551223755 0.0046720001846551895 0.4122380018234253 0.03262300044298172
          0.015931999310851097 0.41151300072669983 0.02985600009560585 0.018154999241232872 0.412771999835968 0.029090000316500664
          -0.02277499996125698 0.4410080015659332 0.11660599708557129 -0.022506000474095345 0.44501200318336487 0.1199060007929802
          -0.03751299902796745 0.4435279965400696 0.12549400329589844 -0.043049998581409454 0.444227010011673 0.12373299896717072
          -0.036021001636981964 0.44275298714637756 0.12347999960184097 -0.0345660001039505 0.4419960081577301 0.1218390017747879
          -0.023886999115347862 0.44116801023483276 0.11666599661111832 -0.02348100021481514 0.4416719973087311 0.11694300174713135
          -0.030515000224113464 0.4419519901275635 0.12147100269794464 -0.02441300079226494 0.4406070113182068 0.11633200198411942
          -0.032565001398324966 0.44262298941612244 0.12307000160217285 -0.04841800034046173 0.44837498664855957 0.13436700403690338
          -0.04982399940490723 0.45097100734710693 0.13289499282836914 -0.04683399945497513 0.44712600111961365 0.1305380016565323
          -0.0468359999358654 0.4550899863243103 0.13464400172233582 -0.043035998940467834 0.45418500900268555 0.12605999410152435
          -0.04218899831175804 0.4540809988975525 0.12241499871015549 -0.037227001041173935 0.4543440043926239 0.1199449971318245
          -0.036031000316143036 0.45380699634552 0.12025199830532074 -0.03855599835515022 0.4546630084514618 0.12093199789524078
          -0.03995399922132492 0.4545159935951233 0.12061300128698349 -0.03814199939370155 0.4543269872665405 0.12303800135850906
          -0.03294700011610985 0.45159101486206055 0.1262039989233017 -0.030928000807762146 0.45034199953079224 0.12471099942922592
          -0.029872000217437744 0.44811299443244934 0.13787800073623657 -0.02079099975526333 0.44670501351356506 0.11276599764823914
          0.011951999738812447 0.4336960017681122 0.04524800181388855 0.010981000028550625 0.43220001459121704 0.0424560010433197
          0.01273099984973669 0.43206000328063965 0.041127000004053116 0.013975000008940697 0.4338560104370117 0.04354799911379814
          0.0117790000513196 0.4310329854488373 0.03925599902868271 0.0025210001040250063 0.4212630093097687 0.025735000148415565
          -0.000577000027988106 0.41569700837135315 0.03268500044941902 0.001104000024497509 0.41694900393486023 0.02847900055348873
          0.014836999587714672 0.4320969879627228 0.024555999785661697 0.013570000417530537 0.43156498670578003 0.03170400112867355
          0.013154000043869019 0.43069198727607727 0.033330999314785004 0.013225000351667404 0.4309709966182709 0.037122998386621475
          0.014348000288009644 0.43089398741722107 0.03338799998164177 0.0038060001097619534 0.4203239977359772 0.023824000731110573
          0.012013999745249748 0.43110600113868713 0.019385000690817833 0.013662000186741352 0.43150898814201355 0.020408999174833298
          0.01042999979108572 0.4303390085697174 0.018749000504612923 0.011200999841094017 0.42910000681877136 0.017815999686717987
          0.009317999705672264 0.4277159869670868 0.01808599941432476 0.010510999709367752 0.42274200916290283 0.017822999507188797
          0.01463599968701601 0.4332619905471802 0.041453998535871506 0.01569399982690811 0.4321640133857727 0.036903999745845795
          0.01515199989080429 0.43266698718070984 0.03924199938774109 0.015740999951958656 0.4316209852695465 0.03286899998784065
          0.016056999564170837 0.431769996881485 0.034651000052690506 0.02173200063407421 0.4292350113391876 0.02981499955058098
          0.017110999673604965 0.43139100074768066 0.029865000396966934 0.02420400083065033 0.425370991230011 0.02999100089073181
          0.023750999942421913 0.4213370084762573 0.028082000091671944 0.023120999336242676 0.4268360137939453 0.029746999964118004
          0.02191000059247017 0.41596001386642456 0.028641000390052795 0.021756000816822052 0.4175719916820526 0.02776399999856949
          0.022947000339627266 0.41945600509643555 0.02778100036084652 0.0022899999748915434 0.41327399015426636 0.03284100070595741
          0.012822999618947506 0.4116649925708771 0.02950100041925907 0.010804999619722366 0.41202300786972046 0.029512999579310417
          0.003370000049471855 0.4132539927959442 0.030926000326871872 0.015223000198602676 0.41361701488494873 0.02787799946963787
          0.013772999867796898 0.41247400641441345 0.028449999168515205 0.018563000485301018 0.4144650101661682 0.027845999225974083
          -0.023545999079942703 0.44263699650764465 0.11881499737501144 -0.03694299980998039 0.4445059895515442 0.13007600605487823
          -0.03874899819493294 0.44416698813438416 0.12933899462223053 -0.040651001036167145 0.44392600655555725 0.12852799892425537
          -0.03558899834752083 0.44394999742507935 0.12720000743865967 -0.04114900156855583 0.4445819854736328 0.13206300139427185
          -0.04531800001859665 0.44654300808906555 0.13540099561214447 -0.03422800078988075 0.4432060122489929 0.12498100101947784
          -0.03204299882054329 0.443803995847702 0.12595699727535248 -0.04819900169968605 0.4486689865589142 0.13942499458789825
          -0.05030500143766403 0.45644399523735046 0.13940000534057617 -0.052285999059677124 0.4566580057144165 0.14791099727153778
          -0.0483429990708828 0.4569070041179657 0.13909399509429932 -0.045542001724243164 0.45585599541664124 0.13471899926662445
          -0.0463780015707016 0.45673298835754395 0.13739000260829926 -0.040936000645160675 0.45451200008392334 0.12646199762821198
          -0.04234899953007698 0.4548879861831665 0.13062000274658203 -0.03872000053524971 0.45444899797439575 0.1265300065279007
          -0.03608199954032898 0.45326799154281616 0.12850899994373322 -0.03164000064134598 0.4506109952926636 0.12784799933433533
          -0.033351000398397446 0.4518359899520874 0.13022799789905548 -0.03338799998164177 0.4519079923629761 0.13466499745845795