<?xml version="1.0"?>
<VTKFile type="PolyData" version="0.1" byte_order="LittleEndian" header_type="UInt32" compressor="vtkZLibDataCompressor">
  <PolyData>
    <Piece NumberOfPoints="264" NumberOfVerts="0" NumberOfLines="0" NumberOfStrips="0" NumberOfPolys="524">
      <PointData Normals="Normals">
        <DataArray type="Float32" Name="Normals" NumberOfComponents="3" format="ascii" RangeMin="0.9999993573219788" RangeMax="1.0000006693454109">
          -0.9603790044784546 -0.23951299488544464 0.1424970030784607 -0.7553979754447937 0.6545590162277222 0.030435999855399132
          -0.989853024482727 -0.11751899868249893 -0.07988400012254715 -0.6636959910392761 -0.7402650117874146 -0.10731100291013718
          -0.2246060073375702 -0.9690139889717102 -0.10277999937534332 -0.38006898760795593 -0.9235450029373169 0.05110400170087814
          -0.9477980136871338 -0.11759299784898758 0.2963959872722626 -0.5107600092887878 0.8142970204353333 0.2757610082626343
          -0.5575019717216492 0.8299970030784607 0.01720999926328659 -0.4557630121707916 0.8900259733200073 -0.01156300026923418
          -0.4255810081958771 0.9048560261726379 0.010804000310599804 -0.5099970102310181 0.8589929938316345 -0.04509799927473068
          -0.9100199937820435 0.3336249887943268 -0.2460860013961792 0.0799499973654747 0.9960010051727295 -0.03986800089478493
          -0.7218700051307678 -0.5778570175170898 -0.3807690143585205 0.2820050120353699 -0.9457740187644958 -0.1611970067024231
          0.7089790105819702 -0.7011370062828064 -0.07586400210857391 0.7099180221557617 -0.6675900220870972 -0.22436699271202087
          -0.8105890154838562 -0.49773600697517395 0.308553010225296 0.013704000040888786 -0.9940739870071411 -0.10783799737691879
          0.21838699281215668 -0.9657620191574097 -0.14003899693489075 -0.9178280234336853 0.1803790032863617 0.35363098978996277
          -0.09366299957036972 0.9088600277900696 0.40644800662994385 0.4380429983139038 0.8989539742469788 -0.0010600000387057662
          0.08554299920797348 0.995730996131897 0.03466299921274185 0.6597440242767334 0.7406079769134521 -0.12742500007152557
          -0.5435159802436829 0.8388059735298157 0.031550999730825424 -0.39817601442337036 0.9170759916305542 0.020684000104665756
          -0.47534701228141785 0.8797780275344849 0.00597199983894825 -0.3737969994544983 0.9274889826774597 -0.006264999974519014
          -0.35597100853919983 0.9343780279159546 -0.014919999986886978 -0.42851901054382324 0.8992109894752502 -0.08826100081205368
          -0.24139900505542755 0.9699519872665405 0.03032599948346615 -0.8421760201454163 0.13337500393390656 -0.5224469900131226
          -0.2773570120334625 0.9366880059242249 -0.21375000476837158 -0.6225820183753967 0.750656008720398 -0.2211499959230423
          -0.8111109733581543 0.553384006023407 -0.18938200175762177 0.9841089844703674 0.17744800448417664 -0.006407000124454498
          0.25601398944854736 0.9664360284805298 0.021421000361442566 -0.6712779998779297 -0.33184999227523804 -0.6627680063247681
          -0.2931010127067566 -0.8313649892807007 -0.4721490144729614 0.7850810289382935 -0.618457019329071 0.03403500095009804
          0.8924180269241333 -0.4508790075778961 0.017242999747395515 -0.014879999682307243 -0.9879080057144165 -0.15432700514793396
          0.4239349961280823 -0.9022259712219238 0.07917100191116333 0.48632898926734924 -0.8317660093307495 -0.2676739990711212
          0.8869879841804504 -0.339262992143631 -0.31329500675201416 -0.5043929815292358 -0.8605359792709351 0.07117299735546112
          0.26538899540901184 -0.9353460073471069 -0.23387199640274048 -0.013768999837338924 -0.9938099980354309 -0.1102370023727417
          -0.13252800703048706 -0.9862989783287048 -0.09823700040578842 0.3425869941711426 -0.8839309811592102 -0.31827500462532043
          0.19655700027942657 -0.9606969952583313 -0.19602900743484497 0.37153899669647217 -0.8991780281066895 -0.2311680018901825
          -0.9960500001907349 -0.0865200012922287 0.019946999847888947 0.05387900024652481 0.9983329772949219 0.02067600004374981
          -0.7323089838027954 0.6621840000152588 -0.15885700285434723 0.47703200578689575 0.876600980758667 -0.06333400309085846
          0.5029460191726685 0.864100992679596 -0.019336000084877014 0.5047969818115234 0.8607050180435181 -0.0660879984498024
          0.4731549918651581 0.8792470097541809 -0.05522599816322327 0.4811420142650604 0.8692100048065186 -0.11391600221395493
          0.21425199508666992 0.9760850071907043 -0.03681400045752525 0.1362379938364029 0.9897289872169495 -0.043299999088048935
          0.5721690058708191 0.791126012802124 -0.21620100736618042 0.2363709956407547 0.9702889919281006 -0.051653001457452774
          -0.5004590153694153 0.856099009513855 0.1289750039577484 -0.41038399934768677 0.909060001373291 0.07207199931144714
          -0.28632599115371704 0.9512159824371338 0.11491700261831284 -0.23144100606441498 0.9714019894599915 0.053047001361846924
          -0.9400330185890198 0.24946600198745728 -0.23260299861431122 -0.8049860000610352 -0.2635219991207123 -0.5315579771995544
          -0.18868499994277954 0.9529590010643005 -0.23720699548721313 0.08405400067567825 0.9373340010643005 -0.338142991065979
          -0.49778100848197937 0.8428850173950195 -0.204352006316185 -0.34891799092292786 0.9079689979553223 -0.2320519983768463
          -0.02727000042796135 0.9491249918937683 -0.3137179911136627 -0.9540259838104248 0.29970601201057434 0.0032420000061392784
          -0.35318800806999207 0.9189710021018982 -0.17535899579524994 -0.8723610043525696 0.4103359878063202 0.2657260000705719
          -0.9737300276756287 0.21642300486564636 0.07079599797725677 0.28185299038887024 0.9573829770088196 0.063059002161026
          0.8431090116500854 0.06836699694395065 0.5333790183067322 0.8448240160942078 0.44940000772476196 0.29036399722099304
          0.7666950225830078 -0.2906140089035034 0.5724700093269348 -0.5354490280151367 -0.533374011516571 -0.6548330187797546
          -0.47155800461769104 -0.8426129817962646 -0.26006999611854553 0.6632199883460999 -0.7067499756813049 0.24626000225543976
          0.8025609850883484 -0.5563250184059143 0.21540400385856628 -0.03668000176548958 -0.947268009185791 0.31833600997924805
          -0.258215993642807 -0.8842560052871704 0.38912099599838257 -0.29088398814201355 -0.9562050104141235 0.03252900019288063
          0.012672999873757362 -0.7575550079345703 0.6526479721069336 0.2601909935474396 -0.6914330124855042 0.6739599704742432
          0.44387298822402954 -0.7793689966201782 -0.44222399592399597 0.9724500179290771 -0.06905999779701233 -0.22264499962329865
          -0.009271999821066856 -0.9998630285263062 -0.013686000369489193 -0.4173339903354645 -0.908748984336853 -0.0027729999274015427
          -0.09319499880075455 -0.9875220060348511 -0.12694400548934937 0.06105000153183937 -0.9827010035514832 -0.17484800517559052
          0.3402639925479889 -0.6578019857406616 -0.6719509959220886 0.24582600593566895 -0.8488759994506836 -0.46795201301574707
          0.33589500188827515 -0.9190660119056702 -0.20613700151443481 0.26581698656082153 -0.859529972076416 -0.4365200102329254
          0.18619200587272644 -0.9624890089035034 -0.19735300540924072 -0.7107840180397034 -0.6950809955596924 -0.10792600363492966
          -0.9979770183563232 -0.017007000744342804 -0.06125500053167343 -0.6550059914588928 -0.7536720037460327 -0.05426499992609024
          -0.628957986831665 0.7680519819259644 0.12044999748468399 -0.5067489743232727 0.858676016330719 -0.07668899744749069
          -0.549992024898529 0.8043599724769592 -0.22475199401378632 0.3467729985713959 0.9298589825630188 -0.12292499840259552
          0.45511698722839355 0.8859570026397705 -0.08915899693965912 0.11036200076341629 0.9651809930801392 -0.23715999722480774
          -0.08308500051498413 0.968051016330719 -0.23658700287342072 0.333296000957489 0.9302830100059509 -0.15325400233268738
          0.4763219952583313 0.8792650103569031 -0.0032049999572336674 0.5136889815330505 0.8575329780578613 -0.027571000158786774
          0.9584400057792664 -0.2547209858894348 0.12849099934101105 0.18378299474716187 0.9785699844360352 -0.09287100285291672
          -0.5200099945068359 0.8385459780693054 0.1625709980726242 -0.3653370141983032 0.92569500207901 0.09806700050830841
          -0.4537689983844757 0.8898800015449524 0.0469760000705719 -0.30525198578834534 0.947845995426178 0.09169799834489822
          -0.4211759865283966 0.9062719941139221 0.03580600023269653 -0.9815189838409424 0.18208500742912292 0.058876000344753265
          -0.8713120222091675 -0.4849889874458313 0.07483699917793274 -0.918595016002655 -0.2662599980831146 0.292043000459671
          0.08432400226593018 0.9889379739761353 -0.12203100323677063 0.18625499308109283 0.8760210275650024 -0.4448550045490265
          0.10606200248003006 0.8321189880371094 -0.5443609952926636 -0.4750469923019409 0.874879002571106 -0.09443199634552002
          -0.3048369884490967 0.8748180270195007 -0.3765200078487396 -0.9071570038795471 -0.1233920007944107 0.40229499340057373
          -0.17995400726795197 0.8788650035858154 0.44182899594306946 0.08208999782800674 0.951662003993988 0.295974999666214
          -0.5456200242042542 0.7937110066413879 0.26892799139022827 -0.360478013753891 0.48306000232696533 0.7979400157928467
          -0.6819549798965454 0.2444009929895401 0.6893519759178162 -0.5707629919052124 -0.08508700132369995 0.816694974899292
          -0.3064810037612915 0.9507489800453186 0.046323999762535095 -0.2781910002231598 0.9603480100631714 -0.018495000898838043
          -0.22141499817371368 0.9746879935264587 0.03096500039100647 -0.18432000279426575 0.9624689817428589 -0.19919699430465698
          -0.17036700248718262 0.9805409908294678 -0.09754499793052673 0.5679640173912048 0.688755989074707 0.45059001445770264
          0.20623700320720673 0.977495014667511 -0.044381000101566315 0.5729680061340332 0.4558179974555969 0.6811299920082092
          0.3225339949131012 0.22077299654483795 0.9204519987106323 0.5403770208358765 0.5771939754486084 0.6122419834136963
          0.449974000453949 -0.48737001419067383 0.7483279705047607 0.09860199689865112 -0.13204599916934967 0.9863269925117493
          0.15038500726222992 -0.0042500002309679985 0.988618016242981 -0.527184009552002 -0.8461470007896423 0.07818900048732758
          -0.2603450119495392 -0.7083140015602112 0.6561340093612671 -0.406235009431839 -0.6146349906921387 0.6761639714241028
          -0.48710501194000244 -0.7517240047454834 0.4445669949054718 -0.24952100217342377 -0.3404810130596161 0.9065390229225159
          -0.29787999391555786 -0.5068879723548889 0.8089079856872559 -0.039090000092983246 -0.3433310091495514 0.9383999705314636
          0.4205009937286377 -0.8828679919242859 -0.20909999310970306 0.14342400431632996 -0.9893059730529785 0.026507999747991562
          0.13647599518299103 -0.9898599982261658 0.039399001747369766 -0.03508400171995163 -0.9990620017051697 0.025363000109791756
          0.10804100334644318 -0.991454005241394 -0.07311700284481049 -0.1628440022468567 -0.9864929914474487 -0.017721999436616898
          -0.37641799449920654 -0.9235720038414001 -0.0729679986834526 0.15004999935626984 -0.9791749715805054 -0.13675400614738464
          0.23670199513435364 -0.9633899927139282 -0.12590399384498596 -0.5739409923553467 -0.7922890186309814 -0.20704799890518188
          -0.6409450173377991 0.7639350295066833 0.07478199899196625 -0.9118120074272156 -0.07455000281333923 -0.40378299355506897
          -0.32452601194381714 0.9350159764289856 0.14292499423027039 -0.27115398645401 0.9612089991569519 0.050533998757600784
          -0.22487199306488037 0.9672549962997437 0.11768700182437897 -0.08770599961280823 0.9870129823684692 -0.1345829963684082
          -0.06258700042963028 0.9979959726333618 -0.00928799994289875 0.2296990007162094 0.9709709882736206 -0.06673099845647812
          0.4017769992351532 0.9156500101089478 0.012675000354647636 0.5903429985046387 0.8069769740104675 0.016840999945998192
          0.5398970246315002 0.8405699729919434 0.0441959984600544 0.5557029843330383 0.8241429924964905 0.10946600139141083
          0.2069769948720932 -0.9761319756507874 -0.06578099727630615 0.18037299811840057 -0.9785029888153076 0.09998299926519394
          0.20030400156974792 -0.9796760082244873 -0.01068700011819601 0.8467519879341125 -0.04573500156402588 0.5300189852714539
          0.20681099593639374 -0.9249110221862793 0.31901100277900696 0.2461549937725067 -0.9390190243721008 0.24010799825191498
          0.5695689916610718 0.8032659888267517 0.17422500252723694 -0.5169500112533569 0.8557590246200562 -0.020975999534130096
          -0.6942510008811951 -0.5734949707984924 0.43487799167633057 -0.6861249804496765 -0.6784660220146179 0.2625199854373932
          -0.602275013923645 -0.5265589952468872 0.6000000238418579 0.0013249999610707164 0.931352972984314 -0.364113986492157
          0.42879098653793335 0.8221870064735413 0.3743619918823242 -0.6500930190086365 -0.5275269746780396 0.5468950271606445
          -0.6808149814605713 -0.41593700647354126 0.6029000282287598 0.23426200449466705 0.6520640254020691 0.7210649847984314
          -0.014835000038146973 0.030355999246239662 0.9994289875030518 0.23857399821281433 0.32593199610710144 0.9147949814796448
          -0.3000960052013397 -0.49264800548553467 0.8168479800224304 0.022676000371575356 -0.3548299968242645 0.934656023979187
          0.6150509715080261 0.4188930094242096 0.6680129766464233 0.5301629900932312 0.3117940127849579 0.7884870171546936
          0.4936090111732483 0.43738099932670593 0.7516970038414001 0.03204600140452385 -0.004683999810367823 0.9994750022888184
          0.36918801069259644 0.17715799808502197 0.9123129844665527 -0.020742999389767647 -0.18562600016593933 0.9824020266532898
          -0.03687800094485283 -0.13008099794387817 0.9908170104026794 -0.41886699199676514 -0.5674290060997009 0.7089260220527649
          -0.4483470022678375 -0.30140599608421326 0.841509997844696 -0.4921579957008362 -0.6147390007972717 0.6163420081138611
          -0.20127899944782257 -0.20679700374603271 0.9574559926986694 -0.28663599491119385 -0.34978699684143066 0.8919020295143127
          -0.018094999715685844 -0.9878889918327332 0.154106006026268 -0.3397339880466461 -0.9387760162353516 -0.0572660006582737
          -0.40088099241256714 -0.9087430238723755 -0.11610399931669235 -0.42440301179885864 -0.8949530124664307 -0.1376280039548874
          -0.4018459916114807 -0.8950110077857971 -0.19358299672603607 -0.674485981464386 -0.39871400594711304 -0.621366024017334
          0.0961650013923645 0.9738460183143616 0.20585499703884125 -0.6110389828681946 0.6930059790611267 -0.3825890123844147
          -0.052205998450517654 0.9819390177726746 0.18185600638389587 -0.0033420000690966845 0.9978200197219849 0.06590600311756134
          0.11986199766397476 0.9828420281410217 0.14019599556922913 0.17023000121116638 0.9853919744491577 -0.004854999948292971
          0.40491101145744324 0.9129809737205505 0.05013100057840347 0.4202589988708496 0.9019960165023804 0.09892299771308899
          0.20628799498081207 -0.9533600211143494 0.2203429937362671 0.7057330012321472 0.7083809971809387 0.011735999956727028
          0.4316200017929077 -0.8166239857673645 0.38318198919296265 0.939486026763916 -0.1667580008506775 0.29926300048828125
          -0.12118600308895111 -0.9925050139427185 0.015737000852823257 0.1600559949874878 -0.9615049958229065 0.22335900366306305
          0.4362260103225708 0.8906369805335999 0.12834399938583374 -0.1827249974012375 -0.6097149848937988 0.7712709903717041
          0.21791400015354156 -0.30429700016975403 0.9273170232772827 0.43536001443862915 -0.1025950014591217 0.8943910002708435
          0.1665869951248169 -0.2571159899234772 0.9519140124320984 -0.258760005235672 -0.9658889770507812 -0.010123999789357185
          -0.5200210213661194 -0.679747998714447 -0.5172240138053894 -0.4769819974899292 -0.08336500078439713 -0.8749499917030334
          -0.4317469894886017 0.3476859927177429 -0.8322910070419312 0.42731499671936035 0.870261013507843 0.245046004652977
          0.4724999964237213 0.8187940120697021 0.3260689973831177 0.36695000529289246 0.9049410223960876 0.21547499299049377
          0.06845399737358093 0.9577640295028687 -0.27928799390792847 0.32612499594688416 0.9388319849967957 0.11061699688434601
          0.26434698700904846 0.9617689847946167 0.07156900316476822 0.4887849986553192 0.8495349884033203 0.19844000041484833
          0.587215006351471 0.7916219830513 0.16885800659656525 0.6752679944038391 0.7341560125350952 -0.0709109976887703
          0.7193149924278259 0.5640720129013062 -0.4054740071296692 0.8148429989814758 -0.44885000586509705 -0.3668319880962372
          -0.3457159996032715 -0.8180059790611267 -0.4597249925136566 0.10966099798679352 -0.9020100235939026 -0.4175559878349304
          0.35868701338768005 -0.39300501346588135 0.8466939926147461 -0.11015699803829193 -0.1395680010318756 -0.9840660095214844
          -0.052747998386621475 0.34263700246810913 -0.9379860162734985 0.4897429943084717 0.6434130072593689 -0.5883640050888062
          0.5375229716300964 0.808542013168335 0.23943500220775604 0.5516350269317627 0.8262270092964172 0.11422800272703171
          0.7011520266532898 0.7083590030670166 0.081324003636837 0.40967699885368347 -0.1678919941186905 -0.8966479897499084
          <InformationKey name="L2_NORM_RANGE" location="vtkDataArray" length="2">
            <Value index="0">
              0.99999935732
            </Value>
            <Value index="1">
              1.0000006693
            </Value>
          </InformationKey>
        </DataArray>
      </PointData>
      <CellData>
      </CellData>
      <Points>
        <DataArray type="Float32" Name="Points" NumberOfComponents="3" format="ascii" RangeMin="0.004659104218412686" RangeMax="0.1563252687847183">
          0.003909999970346689 -0.006023999769240618 -0.0512549988925457 0.00572500005364418 0.003011000109836459 -0.04836200177669525
          0.004654000047594309 -0.007081000134348869 -0.043529000133275986 0.005396000109612942 -0.009371000342071056 -0.0409649983048439
          0.006324999965727329 -0.008825000375509262 -0.05277099832892418 0.0002579999854788184 -0.006161999888718128 -0.07111799716949463
          -0.0010870000114664435 -0.002997000003233552 -0.07018599659204483 -0.0032389999832957983 0.004046000074595213 -0.08168400079011917
          0.006794999819248915 0.00368200009688735 -0.029566999524831772 0.007859000004827976 0.004497000016272068 -0.029949000105261803
          0.005510000046342611 0.0029349999967962503 -0.028725000098347664 0.003924999851733446 0.002320999978110194 -0.027645999565720558
          0.002732000080868602 -0.001006999984383583 -0.029520999640226364 0.012296999804675579 0.005042999982833862 -0.045166999101638794
          0.0019460000330582261 -0.010900000110268593 -0.026876000687479973 0.009197000414133072 -0.012817000038921833 -0.01597600057721138
          0.014574999921023846 -0.009405000135302544 -0.03674300014972687 0.011433999985456467 -0.0025190000887960196 -0.07621199637651443
          -0.007906000129878521 -0.0036609999369829893 -0.08788199722766876 -0.0025239998940378428 -0.004652999807149172 -0.09368699789047241
          0.000977999996393919 -0.005317999981343746 -0.08799800276756287 -0.017024999484419823 0.00611699977889657 -0.10383699834346771
          -0.013673000037670135 0.00977999996393919 -0.1036669984459877 -0.006384999956935644 0.00634999992325902 -0.10961200296878815
          -0.0021869998890906572 0.004557999782264233 -0.0957610011100769 0.011257999576628208 0.002570000011473894 -0.07500100135803223
          0.007368999999016523 0.004050000105053186 -0.026443000882864 0.00837399996817112 0.004772000014781952 -0.028304999694228172
          0.006264000199735165 0.0032760000322014093 -0.02625500038266182 0.005042000208050013 0.0027089999057352543 -0.026643000543117523
          0.004815000109374523 0.0026680000592023134 -0.024946000427007675 0.002343999920412898 0.0020890000741928816 -0.02169100008904934
          0.0036410000175237656 0.002280999906361103 -0.023158999159932137 -0.004757000133395195 -0.009259999729692936 -0.01591300033032894
          0.0011950000189244747 0.0021279999054968357 -0.0176790002733469 -0.0004199999966658652 0.0023300000466406345 -0.01283000037074089
          -0.0043739997781813145 0.0023590000346302986 -0.0005789999850094318 0.017806999385356903 0.0011180000146850944 -0.029083000496029854
          0.01360000018030405 0.0055599999614059925 -0.028560999780893326 -0.003967999946326017 -0.011870999820530415 -0.016248999163508415
          -0.0023449999280273914 -0.013782000169157982 -0.016138000413775444 0.012880999594926834 -0.01071999967098236 -0.004821000155061483
          0.015691999346017838 -0.005563000217080116 -0.01582000032067299 0.001639000023715198 -0.01580199971795082 -0.011776000261306763
          0.007837999612092972 -0.015254000201821327 -0.005235000047832727 0.0027230000123381615 -0.004143000114709139 -0.08927799761295319
          0.0037499999161809683 0.0006050000083632767 -0.09818000346422195 -0.011854000389575958 -0.002867999952286482 -0.09838899970054626
          -0.00010099999781232327 -0.004999999888241291 -0.09060599654912949 -0.0069240001030266285 -0.0037010000087320805 -0.1055459976196289
          -0.00862099975347519 -0.0033889999613165855 -0.10737700015306473 -0.0022140000946819782 -0.002715999959036708 -0.10265299677848816
          -0.005673999898135662 -0.003493000054731965 -0.10638999938964844 0.000981000019237399 -0.004095000214874744 -0.09245999902486801
          -0.018441999331116676 0.0011350000277161598 -0.11508999764919281 -0.015157000161707401 0.011152000166475773 -0.10619299858808517
          -0.01617399975657463 0.009002000093460083 -0.11341000348329544 -0.008863000199198723 0.007573999930173159 -0.1129010021686554
          -0.006134000141173601 0.006107000168412924 -0.11283499747514725 -0.008941000327467918 0.007841999642550945 -0.11110799759626389
          -0.00446499977260828 0.005179999861866236 -0.11033599823713303 0.0002699999895412475 0.003539999946951866 -0.10366100072860718
          -0.0007379999733529985 0.004379999823868275 -0.09762900322675705 0.0021520000882446766 0.004104999825358391 -0.09444999694824219
          0.005009000189602375 0.0038670001085847616 -0.09128300100564957 0.005665999837219715 0.004734999965876341 -0.0870010033249855
          0.007701999973505735 0.004112999886274338 -0.024726999923586845 0.006221000105142593 0.0032190000638365746 -0.024104999378323555
          0.009545999579131603 0.004867999814450741 -0.02268500067293644 0.005239000078290701 0.0019359999569132924 -0.01652500033378601
          -0.007422999944537878 -0.010364999994635582 -0.012399000115692616 -0.007147999946027994 -0.01232299953699112 -0.013509999960660934
          0.001973999897018075 0.004273000173270702 -0.008387000299990177 0.004224999807775021 0.004153000190854073 -0.010304000228643417
          -0.000007000000096013537 0.002982999896630645 -0.010603999719023705 0.000813000020571053 0.003700000001117587 -0.009602000005543232
          0.00521400012075901 0.0019970000721514225 -0.012764999642968178 -0.0059819999150931835 -0.002933999989181757 -0.003916999790817499
          0.0002209999947808683 0.005927000194787979 -0.0013909999979659915 -0.0043669999577105045 0.0026579999830573797 0.0009210000280290842
          -0.005111999809741974 -0.00026199998683296144 -0.0013389999512583017 0.013981999829411507 0.0038789999671280384 -0.014398000203073025
          0.015085999853909016 -0.0047240001149475574 -0.001167000038549304 0.015623999759554863 -0.0007510000141337514 -0.004275000188499689
          0.014457999728620052 -0.006556000094860792 -0.0007789999945089221 -0.005226000212132931 -0.013088000006973743 -0.014786999672651291
          -0.006147000007331371 -0.013524999842047691 -0.013307999819517136 0.011074000038206577 -0.012376000173389912 -0.00279999990016222
          0.012668999843299389 -0.010312000289559364 -0.0026489999145269394 0.0052200001664459705 -0.015455000102519989 -0.004242999944835901
          0.001643999945372343 -0.015603000298142433 -0.006118999794125557 -0.002500999951735139 -0.015328999608755112 -0.009700000286102295
          0.007133999839425087 -0.014922999776899815 -0.0032210000790655613 0.008960000239312649 -0.013426000252366066 -0.001981999957934022
          0.0004309999931138009 -0.0023300000466406345 -0.10165999829769135 0.0018129999516531825 0.0010900000343099236 -0.10531900078058243
          -0.010378999635577202 -0.002174000022932887 -0.11528699845075607 -0.016184000298380852 -0.0015279999934136868 -0.11564400047063828
          -0.00966500025242567 -0.002520000096410513 -0.11278600245714188 -0.00885900016874075 -0.0029120000544935465 -0.11064600199460983
          -0.0005939999828115106 -0.002248999895527959 -0.10211800038814545 -0.00011700000322889537 -0.0017729999963194132 -0.10232499986886978
          -0.005177999846637249 -0.0026549999602138996 -0.10893400013446808 -0.0012019999558106065 -0.0027779999654740095 -0.1018889993429184
          -0.006558000110089779 -0.0023769999388605356 -0.11122100055217743 -0.017590999603271484 0.0005029999883845448 -0.1280129998922348
          -0.019416000694036484 0.003217000048607588 -0.12757499516010284 -0.01741199940443039 -0.000007999999979801942 -0.12371999770402908
          -0.016008999198675156 0.007166000083088875 -0.12890200316905975 -0.015375000424683094 0.00790099985897541 -0.11952199786901474
          -0.015825999900698662 0.008442999795079231 -0.11584500223398209 -0.012008000165224075 0.009399999864399433 -0.11193399876356125
          -0.010777999646961689 0.0088919997215271 -0.11172199994325638 -0.01291900034993887 0.009472999721765518 -0.11334999650716782
          -0.014341999776661396 0.009297999553382397 -0.11350099742412567 -0.011808999814093113 0.008822999894618988 -0.11510200053453445
          -0.005843999795615673 0.005921000149101019 -0.11580699682235718 -0.004459000192582607 0.005055000074207783 -0.11352799832820892
          0.0010369999799877405 0.0007740000146441162 -0.12496999651193619 0.0009820000268518925 0.004023999907076359 -0.09842699766159058
          0.008658000268042088 0.00417400011792779 -0.022657999768853188 0.006790999788790941 0.0030990000814199448 -0.0201409999281168
          0.007980000227689743 0.0032820000778883696 -0.01829800009727478 0.009976999834179878 0.004730000160634518 -0.020431999117136
          0.006446000188589096 0.0025190000887960196 -0.01670899987220764 -0.006878000218421221 -0.005444999784231186 -0.005617999937385321
          -0.007412000093609095 -0.012245000340044498 -0.012125999666750431 -0.007271999958902597 -0.010226000100374222 -0.007885999977588654
          0.004290999844670296 0.006147999782115221 -0.002259999979287386 0.005545999854803085 0.004381999839097261 -0.009208999574184418
          0.00571200018748641 0.003232999937608838 -0.010703000240027905 0.007075999863445759 0.0028929999098181725 -0.014236999675631523
          0.006852999795228243 0.003493000054731965 -0.010389000177383423 -0.0063240001909434795 -0.0059819999150931835 -0.003254000097513199
          -0.0001289999927394092 0.0058479998260736465 0.0017470000311732292 0.001769999973475933 0.006175999995321035 0.001285000005736947
          -0.0018360000103712082 0.0051020001992583275 0.001934999949298799 -0.0014299999456852674 0.0040799998678267 0.0032730000093579292
          -0.0031079999171197414 0.002560999942943454 0.002630000002682209 -0.0020759999752044678 -0.002222999930381775 0.004137999843806028
          0.009882999584078789 0.004526000004261732 -0.018168000504374504 0.009321000427007675 0.0042500002309679985 -0.013410000130534172
          0.009610000066459179 0.00433199992403388 -0.015843000262975693 0.007984999567270279 0.004377000033855438 -0.009565000422298908
          0.008891000412404537 0.004251000005751848 -0.011133999563753605 0.012570000253617764 0.0028810000512748957 -0.00430699996650219
          0.008244000375270844 0.004720999859273434 -0.006283999886363745 0.014952999539673328 -0.0008060000254772604 -0.002966000000014901
          0.013875000178813934 -0.004495000001043081 -0.0006510000093840063 0.01385200023651123 0.0006120000034570694 -0.003358999965712428
          0.01233499962836504 -0.009991000406444073 -0.0008559999987483025 0.011889999732375145 -0.008268999867141247 -0.0003760000108741224
          0.013016000390052795 -0.006345999892801046 -0.0003169999981764704 -0.004664999898523092 -0.014485999941825867 -0.010883999988436699
          0.004091000184416771 -0.01489999983459711 -0.003965999931097031 0.0021989999804645777 -0.014670000411570072 -0.004718999844044447
          -0.004304000176489353 -0.014128999784588814 -0.008744999766349792 0.005791000090539455 -0.012570999562740326 -0.0019950000569224358
          0.004623999819159508 -0.013875000178813934 -0.0028150000143796206 0.008918999694287777 -0.01153200026601553 -0.0009879999561235309
          0.0004619999963324517 -0.001133000012487173 -0.10424699634313583 -0.008275000378489494 -0.0019249999895691872 -0.11950600147247314
          -0.010224999859929085 -0.0022460001055151224 -0.11937300115823746 -0.01228999998420477 -0.002463999902829528 -0.11922100186347961
          -0.007987000048160553 -0.0019229999743402004 -0.11629100143909454 -0.011548000387847424 -0.0024240000639110804 -0.12277399748563766
          -0.014324000105261803 -0.0012860000133514404 -0.12760700285434723 -0.007466999813914299 -0.002213000087067485 -0.11365000158548355
          -0.005080000031739473 -0.0016540000215172768 -0.11392100155353546 -0.01565600000321865 -0.000019999999494757503 -0.13267099857330322