<?xml version="1.0"?>
<VTKFile type="PolyData" version="0.1" byte_order="LittleEndian" header_type="UInt32" compressor="vtkZLibDataCompressor">
  <PolyData>
    <Piece NumberOfPoints="103" NumberOfVerts="0" NumberOfLines="0" NumberOfStrips="0" NumberOfPolys="202">
      <PointData Normals="Normals">
        <DataArray type="Float32" Name="Normals" NumberOfComponents="3" format="ascii" RangeMin="0.9999994460648531" RangeMax="1.0000005433611308">
          0.31405898928642273 0.9447910189628601 -0.09346900135278702 0.23907800018787384 0.8762850165367126 -0.4182890057563782
          0.37861499190330505 0.669530987739563 -0.639045000076294 0.2886179983615875 0.6676309704780579 0.6862710118293762
          0.18404099345207214 0.7790300250053406 0.5993679761886597 0.5236650109291077 0.5432649850845337 -0.6562299728393555
          0.09822200238704681 0.9936839938163757 -0.05426900088787079 -0.6042190194129944 0.7539700269699097 0.25777798891067505
          0.24032899737358093 0.7681099772453308 -0.5935059785842896 0.13675600290298462 0.9844920039176941 -0.10987699776887894
          0.18440799415111542 0.623649001121521 -0.7596420049667358 0.09082400053739548 0.9907039999961853 -0.1012749969959259
          0.39416900277137756 -0.024368999525904655 -0.9187150001525879 0.174453005194664 -0.18993499875068665 -0.966172993183136
          -0.3557800054550171 0.6280810236930847 0.6920509934425354 -0.9254879951477051 0.06637900322675705 0.37291601300239563
          -0.5437089800834656 0.106905996799469 0.8324369788169861 0.22332200407981873 -0.08850599825382233 0.9707180261611938
          0.15688900649547577 0.492918998003006 0.8558139801025391 0.12617599964141846 0.20477700233459473 0.9706419706344604
          0.65277498960495 0.047224000096321106 -0.7560780048370361 0.48847201466560364 0.09125400334596634 -0.8677949905395508
          0.47683998942375183 0.14461399614810944 -0.8670129776000977 -0.994687020778656 -0.09303600341081619 0.04405900090932846
          -0.9443259835243225 0.32554298639297485 -0.0476440005004406 -0.4165149927139282 0.1922370046377182 -0.8885719776153564
          -0.2964940071105957 0.5661299824714661 -0.7691479921340942 -0.08688200265169144 0.5076090097427368 -0.8571959733963013
          0.37383899092674255 0.8439229726791382 0.38475799560546875 0.01076200045645237 0.6917110085487366 0.7220939993858337
          0.18028199672698975 0.6552960276603699 -0.7335429787635803 0.45583000779151917 0.8502359986305237 -0.26328301429748535
          0.12654800713062286 -0.9086989760398865 -0.3978079855442047 0.3834350109100342 -0.5988500118255615 -0.7031049728393555
          -0.021872999146580696 -0.9770079851150513 0.21207700669765472 -0.059053000062704086 -0.8650699853897095 -0.49816301465034485
          0.08459000289440155 0.1467220038175583 -0.9855539798736572 -0.9864100217819214 -0.05748499929904938 -0.1539209932088852
          -0.7628819942474365 -0.6063969731330872 -0.22426199913024902 -0.856332004070282 -0.5155240297317505 -0.0305160004645586
          -0.6724730134010315 -0.4215390086174011 0.6083459854125977 -0.9637140035629272 -0.10903599858283997 -0.24365299940109253
          0.2354390025138855 -0.3656750023365021 0.9004719853401184 0.038068000227212906 -0.6107730269432068 0.7908899784088135
          0.3015339970588684 -0.8147569894790649 0.4952259957790375 0.09225399792194366 -0.17446599900722504 0.9803320169448853
          0.03649299964308739 -0.32103800773620605 0.9463629722595215 0.5268650054931641 -0.6814050078392029 -0.5080360174179077
          0.5945349931716919 -0.372188001871109 -0.7127439975738525 0.2445179969072342 -0.22068700194358826 -0.9441969990730286
          -0.9650049805641174 0.2619209885597229 0.012782000005245209 -0.9557409882545471 -0.20565000176429749 0.21039700508117676
          -0.9599480032920837 0.2780660092830658 0.034331001341342926 -0.9031630158424377 0.4101859927177429 0.12666399776935577
          -0.9137570261955261 0.2702769935131073 0.3033129870891571 -0.959069013595581 0.050877999514341354 -0.2785640060901642
          -0.4074690043926239 -0.20174600183963776 -0.8906559944152832 -0.46509599685668945 0.16226999461650848 -0.870261013507843
          -0.4226999878883362 -0.2557309865951538 -0.8694400191307068 0.08654599636793137 0.07761300355195999 -0.9932199716567993
          -0.11601900309324265 0.4372529983520508 -0.8918240070343018 0.13948099315166473 -0.1090179979801178 0.9842050075531006
          0.7960829734802246 -0.04635699838399887 0.6034089922904968 0.946537971496582 0.32246699929237366 0.008954999968409538
          0.5467060208320618 -0.3969550132751465 -0.7372509837150574 0.7933809757232666 0.21822400391101837 -0.5682650208473206
          0.26179400086402893 -0.9455010294914246 -0.1936269998550415 -0.06351999938488007 -0.9162009954452515 -0.39565199613571167
          0.1538199931383133 -0.8636549711227417 -0.4800420105457306 0.197720006108284 -0.980010986328125 0.022022999823093414
          0.04671400040388107 -0.2753329873085022 -0.9602130055427551 -0.7932289838790894 -0.2895140051841736 -0.5356950163841248
          -0.9603300094604492 -0.2740890085697174 0.051389001309871674 -0.9468669891357422 -0.16967299580574036 -0.2732299864292145
          -0.8060060143470764 -0.4920940101146698 0.32893499732017517 -0.9521679878234863 -0.12093699723482132 -0.28062599897384644
          -0.44679200649261475 -0.6891660094261169 0.5704619884490967 -0.7524160146713257 -0.6333469748497009 0.18094399571418762
          -0.055493999272584915 -0.9643080234527588 0.25890299677848816 0.11102300137281418 -0.9937909841537476 0.007331000175327063
          0.10765600204467773 -0.9487869739532471 -0.2970080077648163 -0.23221799731254578 -0.6934170126914978 -0.6820909976959229
          -0.868893027305603 0.2735750079154968 0.4125309884548187 -0.8867350220680237 0.423660010099411 0.18497000634670258
          -0.9202520251274109 0.3862859904766083 -0.06261000037193298 -0.9866520166397095 0.06792899966239929 0.1479959934949875
          -0.9897720217704773 0.13534200191497803 0.045090001076459885 -0.9132590293884277 -0.38970300555229187 0.11870100349187851
          -0.9964209794998169 -0.03937700018286705 -0.07479400187730789 0.40458598732948303 -0.8145430088043213 0.41572800278663635
          0.7441359758377075 -0.6656320095062256 -0.0565279982984066 -0.9973729848861694 0.02563299983739853 0.06774599850177765
          -0.896888017654419 0.11020900309085846 0.4283060133457184 -0.4023430049419403 -0.9082099795341492 0.11521200090646744
          -0.5768700242042542 -0.8132550120353699 0.0764010027050972 -0.6097239851951599 -0.6721190214157104 0.42010900378227234
          -0.6750370264053345 -0.7358779907226562 0.052994001656770706 -0.6269789934158325 -0.6997720003128052 0.3423689901828766
          -0.4138289988040924 -0.9074090123176575 -0.0731699988245964 -0.6873109936714172 -0.6841859817504883 -0.2439109981060028
          -0.9367849826812744 0.0796009972691536 0.34073200821876526 -0.9281060099601746 0.33084800839424133 0.17076200246810913
          -0.8448259830474854 -0.5335509777069092 -0.03990500047802925
          <InformationKey name="L2_NORM_RANGE" location="vtkDataArray" length="2">
            <Value index="0">
              0.99999944606
            </Value>
            <Value index="1">
              1.0000005434
            </Value>
          </InformationKey>
        </DataArray>
      </PointData>
      <CellData>
      </CellData>
      <Points>
        <DataArray type="Float32" Name="Points" NumberOfComponents="3" format="ascii" RangeMin="0.052456270697396404" RangeMax="0.07708589483697437">
          0.056696001440286636 -0.001420999993570149 -0.01961199939250946 0.06505600363016129 -0.0029410000424832106 -0.017000999301671982
          0.06266500055789948 -0.0033889999613165855 -0.01925400085747242 0.053353000432252884 -0.001661999966017902 -0.011500000022351742
          0.0569240003824234 -0.0026110000908374786 -0.012807999737560749 0.058423999696969986 -0.003212000010535121 -0.021991999819874763
          0.06328500062227249 -0.002607000060379505 -0.016628000885248184 0.05024399980902672 -0.00007400000322377309 -0.015073000453412533
          0.052751000970602036 -0.0011149999918416142 -0.025902999565005302 0.053043000400066376 -0.00006600000051548705 -0.021397000178694725
          0.06530000269412994 -0.004616000223904848 -0.019096000120043755 0.06801000237464905 -0.0026650000363588333 -0.01563500054180622
          0.06256300210952759 -0.006126000080257654 -0.02124200016260147 0.06414400041103363 -0.0069679999724030495 -0.02081199921667576
          0.05197000131011009 -0.0014420000370591879 -0.011624000035226345 0.052411001175642014 -0.0022499999031424522 -0.011014999821782112
          0.05229000002145767 -0.005747999995946884 -0.010471999645233154 0.05631300061941147 -0.006909999996423721 -0.011086000129580498
          0.06410200148820877 -0.003965999931097031 -0.01293100044131279 0.059606000781059265 -0.004654000047594309 -0.012190000154078007
          0.05674400180578232 -0.005197000224143267 -0.024228999391198158 0.05858900025486946 -0.005154000129550695 -0.022967999801039696
          0.05407699942588806 -0.005485000088810921 -0.02673500031232834 0.05243400111794472 -0.004594000056385994 -0.019246000796556473
          0.05143899843096733 -0.0006539999740198255 -0.02397499978542328 0.0515189990401268 -0.003667999990284443 -0.026969999074935913
          0.06800100207328796 -0.004920000210404396 -0.019379999488592148 0.06724700331687927 -0.006376999896019697 -0.01960499957203865
          0.07307600229978561 -0.003783999942243099 -0.014165000058710575 0.06768400222063065 -0.0036359999794512987 -0.013705000281333923
          0.06974399834871292 -0.0050200000405311584 -0.020018000155687332 0.07339400053024292 -0.0038590000476688147 -0.01627199910581112
          0.06215900182723999 -0.007091000210493803 -0.020462999120354652 0.05887199938297272 -0.007052000146359205 -0.022252000868320465
          0.06305500119924545 -0.007362999953329563 -0.0132039999589324 0.06587599962949753 -0.007757999934256077 -0.020194999873638153
          0.06632500141859055 -0.007288999855518341 -0.02034500055015087 0.0518449991941452 -0.006568000186234713 -0.01185499969869852
          0.05204100161790848 -0.0066269999369978905 -0.012707999907433987 0.05239599943161011 -0.0064929998479783535 -0.014910000376403332
          0.05185399949550629 -0.007199000101536512 -0.011074000038206577 0.0516900010406971 -0.0072479997761547565 -0.011721000075340271
          0.05993599817156792 -0.006829000078141689 -0.012341000139713287 0.05423999950289726 -0.008662000298500061 -0.011095999740064144
          0.05986800044775009 -0.007679999805986881 -0.01308200042694807 0.06333799660205841 -0.005437999963760376 -0.012346000410616398
          0.06497099995613098 -0.007199999876320362 -0.012520000338554382 0.05656599998474121 -0.006641000043600798 -0.024059999734163284
          0.05519400164484978 -0.00675999978557229 -0.025955000892281532 0.053686000406742096 -0.006554000079631805 -0.026758000254631042
          0.05235400050878525 -0.006812999956309795 -0.01933700032532215 0.05237799882888794 -0.006490000057965517 -0.016804000362753868
          0.05226299911737442 -0.006440000142902136 -0.0180440004914999 0.051913000643253326 -0.007833000272512436 -0.021824000403285027
          0.051224999129772186 -0.006903999950736761 -0.023888999596238136 0.0512159988284111 -0.006357999984174967 -0.026135999709367752
          0.05181200057268143 -0.00622399989515543 -0.02712699957191944 0.06784400343894958 -0.006887999828904867 -0.02032499946653843
          0.06814400106668472 -0.007021999917924404 -0.020798999816179276 0.069132000207901 -0.006775000132620335 -0.02082899957895279
          0.06714800000190735 -0.007019000127911568 -0.020179999992251396 0.07003200054168701 -0.005747999995946884 -0.011556999757885933
          0.07449299842119217 -0.005369999911636114 -0.013536999933421612 0.0751589983701706 -0.005510000046342611 -0.016184000298380852
          0.07217200100421906 -0.006978999823331833 -0.01962600089609623 0.07492300122976303 -0.005681999959051609 -0.017218999564647675
          0.05689200013875961 -0.007803000044077635 -0.02083900012075901 0.06819900125265121 -0.0076939999125897884 -0.02001900039613247
          0.07004000246524811 -0.007528999820351601 -0.02015100046992302 0.07217299938201904 -0.007675999775528908 -0.01781100034713745
          0.06735999882221222 -0.007683000061661005 -0.020299000665545464 0.052650000900030136 -0.007189999800175428 -0.012571999803185463
          0.053272999823093414 -0.006802000105381012 -0.014630000106990337 0.053240999579429626 -0.00688599981367588 -0.013964000158011913
          0.05290500074625015 -0.0068350001238286495 -0.01628500036895275 0.05249600112438202 -0.007796999998390675 -0.012451999820768833
          0.052636001259088516 -0.008717999793589115 -0.011463000439107418 0.05271599814295769 -0.009088000282645226 -0.012319999746978283
          0.05417700111865997 -0.009770999662578106 -0.012666000053286552 0.05341799929738045 -0.009871999733150005 -0.017249999567866325
          0.0520239993929863 -0.00950200017541647 -0.024041999131441116 0.05193199962377548 -0.00810300000011921 -0.026290999725461006
          0.052776999771595 -0.007588000036776066 -0.016346000134944916 0.0520160011947155 -0.007000000216066837 -0.017867999151349068
          0.05196800082921982 -0.007973999716341496 -0.01965400017797947 0.051353998482227325 -0.008740999735891819 -0.021858999505639076
          0.05122699961066246 -0.00911100022494793 -0.018237000331282616 0.05117199942469597 -0.008949000388383865 -0.023458000272512436
          0.05057999864220619 -0.007184999994933605 -0.024700000882148743 0.07333000004291534 -0.006781000178307295 -0.013563999906182289
          0.07477899640798569 -0.006376999896019697 -0.016533000394701958 0.05256899818778038 -0.008464000187814236 -0.014611000195145607
          0.05203999951481819 -0.008658000268042088 -0.016673000529408455 0.0531340017914772 -0.009645000100135803 -0.013164999894797802
          0.05279099941253662 -0.009379999712109566 -0.014771999791264534 0.0517130009829998 -0.009723000228404999 -0.017295999452471733
          0.051465000957250595 -0.009813000448048115 -0.018448999151587486 0.05272600054740906 -0.00975400023162365 -0.016011999920010567
          0.051924001425504684 -0.009630000218749046 -0.022290999069809914 0.051316998898983 -0.0090549997985363 -0.024271000176668167
          0.05139800161123276 -0.0090549997985363 -0.017355000600218773 0.05162600055336952 -0.007860999554395676 -0.017904000356793404
          0.051642000675201416 -0.009468000382184982 -0.021740000694990158
          <InformationKey name="L2_NORM_RANGE" location="vtkDataArray" length="2">
            <Value index="0">
              0.052456270697
            </Value>
            <Value index="1">
              0.077085894837
            </Value>
          </InformationKey>
        </DataArray>
      </Points>
      <Verts>
        <DataArray type="Int64" Name="connectivity" format="ascii" RangeMin="1e+299" RangeMax="-1e+299">
        </DataArray>
        <DataArray type="Int64" Name="offsets" format="ascii" RangeMin="1e+299" RangeMax="-1e+299">
        </DataArray>
      </Verts>
      <Lines>
        <DataArray type="Int64" Name="connectivity" format="ascii" RangeMin="1e+299" RangeMax="-1e+299">
        </DataArray>
        <DataArray type="Int64" Name="offsets" format="ascii" RangeMin="1e+299" RangeMax="-1e+299">
        </DataArray>
      </Lines>
      <Strips>
        <DataArray type="Int64" Name="connectivity" format="ascii" RangeMin="1e+299" RangeMax="-1e+299">
        </DataArray>
        <DataArray type="Int64" Name="offsets" format="ascii" RangeMin="1e+299" RangeMax="-1e+299">
        </DataArray>
      </Strips>
      <Polys>
        <DataArray type="Int32" Name="connectivity" format="ascii" RangeMin="0" RangeMax="102">
          0 1 2 0 3 4
          0 2 5 0 6 1
          6 0 4 7 3 0
          8 9 0 5 8 0
          9 7 0 1 10 2
          11 10 1 6 11 1
          5 2 12 10 13 2
          13 12 2 14 3 7
          15 3 14 3 15 16
          4 3 17 3 16 17
          4 18 11 11 6 4
          19 18 4 19 4 17
          20 5 21 8 5 22
          22 5 20 12 21 5
          7 23 15 7 9 24
          15 14 7 23 7 24
          9 8 24 25 24 8
          8 22 25 11 26 10
          10 26 27 27 13 10
          28 11 29 30 26 11
          30 11 31 29 11 18
          31 11 28 32 12 13
          21 12 33 32 33 12
          13 34 32 35 34 13
          36 35 13 27 36 13
          16 15 37 37 15 38
          39 38 15 23 39 15
          40 17 16 37 41 16
          40 16 41 17 42 19
          43 44 17 42 17 44
          40 43 17 18 19 45
          29 18 46 45 46 18
          19 42 45 20 21 33
          47 20 33 22 20 48
          20 47 48 48 49 22
          25 22 49 50 23 24
          23 51 39 51 23 52
          50 52 23 53 24 54
          54 24 55 24 25 55
          50 24 53 25 56 55
          56 25 49 57 26 58
          58 26 59 26 30 59
          27 26 57 60 36 27
          27 57 60 28 61 62
          28 29 61 28 62 63
          28 63 31 61 29 46
          59 30 64 31 65 30
          65 64 30 65 31 63
          32 66 33 34 66 32
          47 33 66 46 45 34
          44 66 34 34 67 68
          34 68 69 34 35 67
          46 34 69 45 44 34
          70 35 36 70 67 35
          70 36 60 37 71 41
          71 37 38 72 38 39
          38 73 71 73 38 72
          39 74 72 51 74 39
          41 75 40 76 43 40
          77 76 40 77 40 75
          71 75 41 45 42 44
          43 78 44 76 77 43
          77 78 43 44 78 79
          79 66 44 46 69 61
          66 80 47 48 47 81
          47 80 81 48 81 49
          49 81 56 53 52 50
          82 51 52 51 82 74
          83 82 52 84 52 53
          84 83 52 53 54 85
          85 86 53 86 84 53
          85 54 87 54 88 87
          54 55 88 56 81 55
          55 81 88 57 70 60
          67 57 58 70 57 67
          58 59 68 67 58 68
          59 64 68 61 69 89
          89 62 61 63 62 90
          89 90 62 63 90 65
          64 65 90 68 64 69
          90 69 64 80 66 79
          69 90 89 73 75 71
          91 73 72 82 72 74
          92 91 72 92 72 82
          91 75 73 75 91 77
          93 77 94 94 77 91
          77 93 78 94 78 93
          78 94 79 79 95 96
          94 97 79 97 95 79
          96 98 79 98 80 79
          98 99 80 81 80 99
          88 81 99 100 92 82
          82 101 100 101 82 83
          101 83 84 100 84 86
          101 84 100 86 85 102
          87 102 85 100 86 96
          86 102 96 87 88 99
          102 87 98 87 99 98
          97 94 91 92 97 91
          95 97 92 92 100 95
          100 96 95 96 102 98
        </DataArray>
        <DataArray type="Int32" Name="offsets" format="ascii" RangeMin="3" RangeMax="606">
          3 6 9 12 15 18
          21 24 27 30 33 36
          39 42 45 48 51 54
          57 60 63 66 69 72
          75 78 81 84 87 90
          93 96 99 102 105 108
          111 114 117 120 123 126
          129 132 135 138 141 144
          147 150 153 156 159 162
          165 168 171 174 177 180
          183 186 189 192 195 198
          201 204 207 210 213 216
          219 222 225 228 231 234
          237 240 243 246 249 252
          255 258 261 264 267 270
          273 276 279 282 285 288
          291 294 297 300 303 306
          309 312 315 318 321 324
          327 330 333 336 339 342
          345 348 351 354 357 360
          363 366 369 372 375 378
          381 384 387 390 393 396
          399 402 405 408 411 414
          417 420 423 426 429 432
          435 438 441 444 447 450
          453 456 459 462 465 468
          471 474 477 480 483 486
          489 492 495 498 501 504
          507 510 513 516 519 522
          525 528 531 534 537 540
          543 546 549 552 555 558
          561 564 567 570 573 576
          579 582 585 588 591 594
          597 600 603 606
        </DataArray>
      </Polys>
    </Piece>
  </PolyData>
</VTKFile>
