<?xml version="1.0"?>
<VTKFile type="PolyData" version="0.1" byte_order="LittleEndian" header_type="UInt32" compressor="vtkZLibDataCompressor">
  <PolyData>
    <Piece NumberOfPoints="58" NumberOfVerts="0" NumberOfLines="0" NumberOfStrips="0" NumberOfPolys="112">
      <PointData Normals="Normals">
        <DataArray type="Float32" Name="Normals" NumberOfComponents="3" format="ascii" RangeMin="0.9999994503839716" RangeMax="1.0000006927317175">
          0.014698999933898449 0.8630660176277161 -0.504876971244812 0.5283809900283813 0.817762017250061 -0.2282080054283142
          0.8343560099601746 0.12864899635314941 -0.5360029935836792 0.10893899947404861 0.9886320233345032 -0.10362699627876282
          0.5079950094223022 0.5121650099754333 -0.6925519704818726 -0.1740880012512207 0.6653429865837097 -0.7259560227394104
          0.4281359910964966 -0.36357998847961426 -0.8273509740829468 0.1318800002336502 0.990871012210846 0.027966000139713287
          0.27121099829673767 -0.5263779759407043 -0.805836021900177 0.8591930270195007 -0.47483399510383606 -0.19058099389076233
          0.7689779996871948 0.6356729865074158 0.06777600198984146 0.27242299914360046 0.9015250205993652 0.33621299266815186
          -0.8433510065078735 0.5371059775352478 0.016638999804854393 0.22838599979877472 0.8255789875984192 0.5160030126571655
          -0.7177540063858032 0.6703019738197327 -0.18848000466823578 0.3189760148525238 0.8518810272216797 -0.41539499163627625
          0.7316910028457642 0.11698500066995621 -0.6715229749679565 0.48150500655174255 -0.12919999659061432 -0.8668680191040039
          0.2861280143260956 -0.8770449757575989 -0.38590601086616516 -0.21102100610733032 0.7894279956817627 0.5764319896697998
          0.28586098551750183 0.8672299981117249 0.4076699912548065 0.24154700338840485 -0.8002510070800781 -0.5488659739494324
          0.3081749975681305 -0.9357150197029114 -0.171657994389534 0.002345999935641885 -0.9983170032501221 -0.057948999106884
          0.21733400225639343 -0.9748539924621582 -0.04925600066781044 0.8253759741783142 -0.5511040091514587 0.1226309984922409
          0.23922599852085114 0.5299260020256042 0.8136029839515686 -0.34290000796318054 0.8340250253677368 0.43222901225090027
          -0.3076629936695099 0.30344000458717346 0.9018129706382751 -0.9926599860191345 0.011404000222682953 0.1204029992222786
          -0.9509320259094238 -0.270702987909317 -0.14982399344444275 -0.9809970259666443 -0.15359799563884735 -0.1185469999909401
          0.506846010684967 0.1666869968175888 0.8457670211791992 -0.4673919975757599 0.5709850192070007 -0.6749230027198792
          0.21922199428081512 -0.33481401205062866 -0.9164289832115173 0.4615499973297119 -0.5892500281333923 -0.6631410121917725
          -0.07250099629163742 0.38655799627304077 0.9194110035896301 0.3267520070075989 0.5640900135040283 0.7583109736442566
          -0.46015799045562744 0.10292500257492065 0.8818510174751282 -0.172884002327919 0.0879639983177185 0.9810069799423218
          -0.6625159978866577 0.12293300032615662 0.7388920187950134 -0.20268599689006805 -0.8908380270004272 -0.40660399198532104
          0.253713995218277 -0.8626750111579895 0.4375160038471222 -0.5840020179748535 -0.8053629994392395 -0.10164999961853027
          -0.6337289810180664 -0.7487450242042542 0.1943420022726059 0.03720200061798096 -0.8959980010986328 0.44249698519706726
          -0.16228699684143066 -0.921800971031189 0.352059006690979 -0.21126799285411835 -0.6795769929885864 0.7025250196456909
          0.06093199923634529 -0.8827019929885864 0.46596500277519226 0.10592400282621384 -0.809391975402832 0.5776370167732239
          0.2158699929714203 0.05414000153541565 0.9749199748039246 -0.7698879837989807 -0.14832399785518646 0.6207029819488525
          0.08022700250148773 -0.4449619948863983 0.8919489979743958 -0.9650530219078064 -0.2619229853153229 -0.008313000202178955
          -0.5285750031471252 -0.6025720238685608 -0.5979260206222534 -0.8954110145568848 0.07626300305128098 -0.43865999579429626
          -0.18838199973106384 -0.057714998722076416 0.9803979992866516 0.004790999926626682 -0.4023660123348236 0.9154660105705261
          <InformationKey name="L2_NORM_RANGE" location="vtkDataArray" length="2">
            <Value index="0">
              0.99999945038
            </Value>
            <Value index="1">
              1.0000006927
            </Value>
          </InformationKey>
        </DataArray>
      </PointData>
      <CellData>
      </CellData>
      <Points>
        <DataArray type="Float32" Name="Points" NumberOfComponents="3" format="ascii" RangeMin="0.04848650754156829" RangeMax="0.058221146731418615">
          0.04911800101399422 -0.002974000060930848 0.024945000186562538 0.05052899941802025 -0.0028699999675154686 0.025265000760555267
          0.05018699914216995 -0.0030380000825971365 0.024057000875473022 0.04421500116586685 -0.001505000051110983 0.024602999910712242
          0.04636000096797943 -0.003028000006452203 0.023871000856161118 0.04959600046277046 -0.0033279999624937773 0.023661000654101372
          0.04827599972486496 -0.004184000194072723 0.023763999342918396 0.048555999994277954 -0.0025369999930262566 0.025947999209165573
          0.04770699888467789 -0.0042849997989833355 0.023653000593185425 0.05065400153398514 -0.003154000034555793 0.025679999962449074
          0.05065099895000458 -0.0028909998945891857 0.02636300027370453 0.04772699996829033 -0.002294000005349517 0.02625199966132641
          0.04334000125527382 -0.001706999959424138 0.024700000882148743 0.04460899904370308 -0.0021069999784231186 0.027885999530553818
          0.043563999235630035 -0.0017659999430179596 0.023233000189065933 0.044307999312877655 -0.0015790000325068831 0.02238599956035614
          0.04557900130748749 -0.003470999887213111 0.022935999557375908 0.04605099931359291 -0.004246000200510025 0.023256000131368637
          0.048340000212192535 -0.004648000001907349 0.024166999384760857 0.04870999976992607 -0.0034630000591278076 0.02800700068473816
          0.050209999084472656 -0.003160000080242753 0.028857000172138214 0.045527998358011246 -0.004765000194311142 0.023420000448822975
          0.04665900021791458 -0.004825000185519457 0.023925000801682472 0.04370399937033653 -0.005646999925374985 0.02586599998176098
          0.04818499833345413 -0.004523000214248896 0.02580299973487854 0.05049100145697594 -0.0035429999697953463 0.02849699929356575
          0.04628400132060051 -0.0028860000893473625 0.027660999447107315 0.043501000851392746 -0.0022529999259859324 0.028578000143170357
          0.043487999588251114 -0.0033370000310242176 0.029600000008940697 0.04296199977397919 -0.004953000228852034 0.028005000203847885
          0.043170999735593796 -0.005018000025302172 0.02394000068306923 0.043028999119997025 -0.005185999907553196 0.024932000786066055
          0.044863998889923096 -0.0031429999507963657 0.028512999415397644 0.04394400119781494 -0.002368000103160739 0.021172000095248222
          0.043887000530958176 -0.003519000019878149 0.0208320003002882 0.04496600106358528 -0.004344000015407801 0.022538000717759132
          0.04726700112223625 -0.003731000004336238 0.02808300033211708 0.049922000616788864 -0.0037070000544190407 0.0297279991209507
          0.04761099815368652 -0.004435000009834766 0.028529999777674675 0.0493599995970726 -0.004085000138729811 0.029841000214219093
          0.04817499965429306 -0.004608000162988901 0.029224999248981476 0.04333699867129326 -0.004885000176727772 0.022513000294566154
          0.04567699879407883 -0.005274999886751175 0.027424000203609467 0.04301200062036514 -0.005384999793022871 0.025828000158071518
          0.043115001171827316 -0.005413999781012535 0.027876999229192734 0.04398500174283981 -0.005495999939739704 0.028471000492572784
          0.04804300144314766 -0.004989999812096357 0.02863200008869171 0.04721200093626976 -0.004714000038802624 0.028230000287294388
          0.04625000059604645 -0.0051020001992583275 0.027765000239014626 0.04881399869918823 -0.004550000187009573 0.02962999977171421
          0.045607998967170715 -0.003855000017210841 0.02814199961721897 0.04324299842119217 -0.004139999859035015 0.02938699908554554
          0.04327600076794624 -0.004602999892085791 0.02917099930346012 0.04291500151157379 -0.005262000020593405 0.0263420008122921
          0.043372999876737595 -0.004162999801337719 0.021508999168872833 0.04347100108861923 -0.003710000077262521 0.021152999252080917
          0.046633001416921616 -0.004408000037074089 0.02817700058221817 0.0457490012049675 -0.004606000147759914 0.028005000203847885
          <InformationKey name="L2_NORM_RANGE" location="vtkDataArray" length="2">
            <Value index="0">
              0.048486507542
            </Value>
            <Value index="1">
              0.058221146731
            </Value>
          </InformationKey>
        </DataArray>
      </Points>
      <Verts>
        <DataArray type="Int64" Name="connectivity" format="ascii" RangeMin="1e+299" RangeMax="-1e+299">
        </DataArray>
        <DataArray type="Int64" Name="offsets" format="ascii" RangeMin="1e+299" RangeMax="-1e+299">
        </DataArray>
      </Verts>
      <Lines>
        <DataArray type="Int64" Name="connectivity" format="ascii" RangeMin="1e+299" RangeMax="-1e+299">
        </DataArray>
        <DataArray type="Int64" Name="offsets" format="ascii" RangeMin="1e+299" RangeMax="-1e+299">
        </DataArray>
      </Lines>
      <Strips>
        <DataArray type="Int64" Name="connectivity" format="ascii" RangeMin="1e+299" RangeMax="-1e+299">
        </DataArray>
        <DataArray type="Int64" Name="offsets" format="ascii" RangeMin="1e+299" RangeMax="-1e+299">
        </DataArray>
      </Strips>
      <Polys>
        <DataArray type="Int32" Name="connectivity" format="ascii" RangeMin="0" RangeMax="57">
          0 1 2 3 0 4
          0 5 6 3 7 0
          4 0 8 6 8 0
          2 5 0 0 7 1
          1 9 2 7 10 1
          10 9 1 5 2 6
          6 2 9 11 7 3
          3 12 13 13 11 3
          12 3 14 3 15 14
          4 15 3 16 15 4
          4 17 16 8 17 4
          8 6 18 18 6 9
          19 7 11 20 7 19
          20 10 7 17 8 21
          22 21 8 22 8 23
          24 8 18 23 8 24
          25 9 10 9 24 18
          9 25 24 20 25 10
          19 11 26 13 26 11
          27 13 12 28 27 12
          12 29 28 12 14 30
          29 12 31 12 30 31
          32 26 13 28 32 13
          27 28 13 33 14 15
          14 33 30 15 16 33
          16 34 33 34 16 35
          16 17 35 35 17 21
          26 36 19 20 19 37
          19 36 38 19 39 37
          40 39 19 40 19 38
          37 25 20 35 21 41
          21 22 23 21 23 41
          23 24 42 23 30 41
          30 23 43 44 43 23
          45 44 23 45 23 42
          25 46 24 47 48 24
          48 42 24 24 46 47
          49 46 25 49 25 39
          37 39 25 50 36 26
          50 26 32 29 51 28
          52 32 28 51 52 28
          51 29 52 29 44 52
          29 53 44 31 53 29
          54 41 30 54 30 55
          30 33 55 31 30 43
          53 31 43 50 32 52
          33 34 55 34 54 55
          34 35 54 54 35 41
          38 36 56 50 56 36
          47 38 56 46 38 47
          46 40 38 39 40 49
          49 40 46 42 48 57
          57 52 42 45 42 52
          43 44 53 52 44 45
          56 57 47 48 47 57
          50 52 57 56 50 57
        </DataArray>
        <DataArray type="Int32" Name="offsets" format="ascii" RangeMin="3" RangeMax="336">
          3 6 9 12 15 18
          21 24 27 30 33 36
          39 42 45 48 51 54
          57 60 63 66 69 72
          75 78 81 84 87 90
          93 96 99 102 105 108
          111 114 117 120 123 126
          129 132 135 138 141 144
          147 150 153 156 159 162
          165 168 171 174 177 180
          183 186 189 192 195 198
          201 204 207 210 213 216
          219 222 225 228 231 234
          237 240 243 246 249 252
          255 258 261 264 267 270
          273 276 279 282 285 288
          291 294 297 300 303 306
          309 312 315 318 321 324
          327 330 333 336
        </DataArray>
      </Polys>
    </Piece>
  </PolyData>
</VTKFile>
