<?xml version="1.0"?>
<VTKFile type="PolyData" version="0.1" byte_order="LittleEndian" header_type="UInt32" compressor="vtkZLibDataCompressor">
  <PolyData>
    <Piece NumberOfPoints="54" NumberOfVerts="0" NumberOfLines="0" NumberOfStrips="0" NumberOfPolys="104">
      <PointData Normals="Normals">
        <DataArray type="Float32" Name="Normals" NumberOfComponents="3" format="ascii" RangeMin="0.999999397047628" RangeMax="1.0000005933019585">
          0.4150870144367218 0.744280993938446 -0.5232099890708923 -0.21128800511360168 0.03426799923181534 -0.9768229722976685
          0.46690699458122253 0.26974400877952576 -0.8421609997749329 0.03680500015616417 0.92808997631073 -0.3705329895019531
          0.6663640141487122 0.6733620166778564 -0.32022398710250854 0.11431500315666199 0.9703980088233948 0.21274399757385254
          0.23118500411510468 0.9728909730911255 0.00597799988463521 0.3714199960231781 -0.24924999475479126 -0.8943830132484436
          -0.09747699648141861 0.7441020011901855 -0.6609169840812683 0 0 1
          0.2516849935054779 -0.8341789841651917 -0.49071499705314636 -0.2820099890232086 0.7331169843673706 -0.6188769936561584
          0.1735839992761612 0.24495400488376617 -0.9538689851760864 -0.11591199785470963 -0.7848269939422607 -0.6087790131568909
          0.14449100196361542 -0.9139170050621033 0.37931299209594727 -0.23153799772262573 -0.9702939987182617 -0.07014100253582001
          0.215705007314682 -0.9763609766960144 0.01381400041282177 0.6644440293312073 0.28544801473617554 -0.6906759738922119
          0.47304901480674744 0.038731999695301056 -0.8801850080490112 0.5989540219306946 0.8007829785346985 -0.0006430000066757202
          0.7755200266838074 0.3295539915561676 -0.5384820103645325 0.5450209975242615 0.6534299850463867 -0.5253400206565857
          -0.18471600115299225 -0.14179199934005737 0.9725099802017212 0.21210700273513794 0.5005329847335815 0.8393309712409973
          0.2969770133495331 0.6518539786338806 0.6977750062942505 -0.007860999554395676 0.6270279884338379 0.7789570093154907
          0.6806139945983887 0.3753010034561157 0.6292170286178589 0.6526370048522949 0.68436598777771 0.3251279890537262
          -0.2638019919395447 0.9429759979248047 0.20299099385738373 -0.7925249934196472 0.57881098985672 -0.19204600155353546
          0.18681700527668 -0.34907999634742737 -0.9182829856872559 -0.09888499975204468 -0.9157119989395142 -0.38947901129722595
          0.5922060012817383 -0.7873809933662415 -0.17124100029468536 -0.04403800144791603 -0.598986029624939 0.7995479702949524
          -0.22659599781036377 -0.9580150246620178 0.1756729930639267 -0.347788006067276 -0.4629719853401184 0.8152920007705688
          0.027984000742435455 -0.8564609885215759 0.5154520273208618 0.01234500017017126 -0.12632200121879578 0.9919120073318481
          0.41306400299072266 -0.2189060002565384 0.8840010166168213 0.39626699686050415 -0.7651860117912292 0.507407009601593
          0.9502509832382202 -0.24864700436592102 0.18761000037193298 -0.2544960081577301 0.42228201031684875 -0.8700050115585327
          -0.21109899878501892 0.8858270049095154 -0.4132170081138611 0 0 1
          -0.874114990234375 0.378244012594223 0.304720014333725 0.15869399905204773 0.1414860039949417 0.9771379828453064
          0.7541409730911255 -0.47056901454925537 0.458079993724823 -0.7608230113983154 0.08962800353765488 -0.6427410244941711
          -0.9242560267448425 -0.05359699949622154 -0.37799298763275146 -0.6984400153160095 -0.6832200288772583 -0.21305100619792938
          -0.7011550068855286 -0.06002800166606903 0.7104769945144653 -0.9733840227127075 -0.1375889927148819 0.18328499794006348
          -0.8266609907150269 -0.5625630021095276 0.012401999905705452 -0.9902799725532532 -0.01582299917936325 -0.13818299770355225
          <InformationKey name="L2_NORM_RANGE" location="vtkDataArray" length="2">
            <Value index="0">
              0.99999939705
            </Value>
            <Value index="1">
              1.0000005933
            </Value>
          </InformationKey>
        </DataArray>
      </PointData>
      <CellData>
      </CellData>
      <Points>
        <DataArray type="Float32" Name="Points" NumberOfComponents="3" format="ascii" RangeMin="0.06352239669747783" RangeMax="0.07070454380476732">
          0.0657379999756813 -0.00304599991068244 0.010777999646961689 0.06707199662923813 -0.00445199990645051 0.010367999784648418
          0.06586199998855591 -0.004236000124365091 0.010052000172436237 0.06812500208616257 -0.0034099998883903027 0.01156499981880188
          0.06509800255298615 -0.0027020000852644444 0.010484999977052212 0.06738399714231491 -0.0030350000597536564 0.01242899987846613
          0.06421999633312225 -0.0021979999728500843 0.01090100035071373 0.0654359981417656 -0.004478999879211187 0.00991700030863285
          0.06881900131702423 -0.0037140001077204943 0.010406999848783016 0.06641700118780136 -0.00481700012460351 0.010360999964177608
          0.06492599844932556 -0.004929000046104193 0.010084000416100025 0.06842599809169769 -0.003988000098615885 0.0102530000731349
          0.06818100064992905 -0.0043310001492500305 0.009972999803721905 0.06736300140619278 -0.004774000030010939 0.01005600020289421
          0.06470099836587906 -0.005371000152081251 0.013314999639987946 0.06743799895048141 -0.004954000003635883 0.010816000401973724
          0.06726499646902084 -0.004782000090926886 0.01267900038510561 0.0648220032453537 -0.0029360000044107437 0.00966500025242567
          0.06525000184774399 -0.0039889998733997345 0.009812000207602978 0.06947900354862213 -0.0033919999841600657 0.012356000021100044
          0.06940300017595291 -0.00344299990683794 0.010859999805688858 0.06431099772453308 -0.0022330000065267086 0.009425000287592411
          0.06650099903345108 -0.004927000030875206 0.014387999661266804 0.06557399779558182 -0.003244000021368265 0.013384999707341194
          0.06347399950027466 -0.0028540000785142183 0.013945999555289745 0.06807000190019608 -0.003898999886587262 0.01500799972563982
          0.0687830001115799 -0.003622000105679035 0.014533000066876411 0.06906100362539291 -0.003473999910056591 0.013961000367999077
          0.062470998615026474 -0.0023769999388605356 0.012742999941110611 0.06260199844837189 -0.002334000077098608 0.011531000025570393
          0.06353999674320221 -0.00419900007545948 0.00865000020712614 0.06294699758291245 -0.005212999880313873 0.009757000021636486
          0.0692249983549118 -0.0040699997916817665 0.010666999965906143 0.06287900358438492 -0.0052109998650848866 0.014305000193417072
          0.06251800060272217 -0.005634000059217215 0.01345600001513958 0.06559400260448456 -0.005158999934792519 0.01368200033903122
          0.06624600291252136 -0.005224000196903944 0.013926999643445015 0.06485600024461746 -0.004315000027418137 0.01388499978929758
          0.06376100331544876 -0.004908999893814325 0.014089999720454216 0.06790599972009659 -0.004310999996960163 0.015304000116884708
          0.0693809986114502 -0.0036899999249726534 0.013106999918818474 0.06365600228309631 -0.0028460000175982714 0.008526000194251537
          0.06374700367450714 -0.0022440000902861357 0.009166000410914421 0.06692799925804138 -0.005148999858647585 0.014686999842524529
          0.0626859962940216 -0.0029249999206513166 0.014289000071585178 0.06284199655056 -0.0035780000034719706 0.014758000150322914
          0.06877599656581879 -0.004151000175625086 0.014341999776661396 0.06328299641609192 -0.003490000031888485 0.008702999912202358
          0.0628800019621849 -0.004650999791920185 0.009324000217020512 0.06236400082707405 -0.0054779998026788235 0.011401999741792679
          0.06224299967288971 -0.004277000203728676 0.014558999799191952 0.06212199851870537 -0.005073000211268663 0.013787999749183655
          0.06218000128865242 -0.00545400008559227 0.01285799965262413 0.062192998826503754 -0.005229000002145767 0.011823000386357307
          <InformationKey name="L2_NORM_RANGE" location="vtkDataArray" length="2">
            <Value index="0">
              0.063522396697
            </Value>
            <Value index="1">
              0.070704543805
            </Value>
          </InformationKey>
        </DataArray>
      </Points>
      <Verts>
        <DataArray type="Int64" Name="connectivity" format="ascii" RangeMin="1e+299" RangeMax="-1e+299">
        </DataArray>
        <DataArray type="Int64" Name="offsets" format="ascii" RangeMin="1e+299" RangeMax="-1e+299">
        </DataArray>
      </Verts>
      <Lines>
        <DataArray type="Int64" Name="connectivity" format="ascii" RangeMin="1e+299" RangeMax="-1e+299">
        </DataArray>
        <DataArray type="Int64" Name="offsets" format="ascii" RangeMin="1e+299" RangeMax="-1e+299">
        </DataArray>
      </Lines>
      <Strips>
        <DataArray type="Int64" Name="connectivity" format="ascii" RangeMin="1e+299" RangeMax="-1e+299">
        </DataArray>
        <DataArray type="Int64" Name="offsets" format="ascii" RangeMin="1e+299" RangeMax="-1e+299">
        </DataArray>
      </Strips>
      <Polys>
        <DataArray type="Int32" Name="connectivity" format="ascii" RangeMin="0" RangeMax="53">
          0 1 2 0 3 1
          2 4 0 3 0 5
          6 5 0 0 4 6
          1 7 2 3 8 1
          9 10 1 7 1 10
          1 8 11 12 13 1
          11 12 1 1 10 9
          10 1 14 1 13 15
          16 1 15 16 14 1
          2 17 4 18 17 2
          7 18 2 19 20 3
          20 8 3 5 19 3
          4 17 21 4 21 6
          22 5 23 5 6 24
          24 23 5 25 26 5
          26 27 5 19 5 27
          25 5 22 6 28 24
          29 28 6 29 6 21
          18 7 30 30 7 10
          12 11 8 8 20 12
          14 31 10 10 31 30
          12 32 13 20 32 12
          13 32 15 14 33 34
          31 14 34 35 14 36
          14 16 36 37 38 14
          33 14 38 14 35 37
          16 15 32 39 16 32
          22 16 39 36 16 22
          17 18 21 30 21 18
          20 19 40 40 19 27
          20 40 32 41 42 21
          41 21 30 21 42 29
          25 22 39 22 43 39
          37 22 23 22 37 35
          22 35 36 22 39 43
          24 37 23 44 24 28
          44 45 24 24 45 38
          37 24 38 39 46 25
          26 25 46 40 27 26
          40 26 46 44 28 29
          47 29 41 29 42 41
          44 29 48 29 47 48
          41 30 47 31 48 30
          48 47 30 31 49 48
          31 34 49 32 40 46
          39 32 46 33 38 45
          50 33 45 33 50 51
          34 33 51 34 52 49
          34 51 52 44 51 50
          45 44 50 44 48 51
          53 48 49 53 51 48
          49 52 53 51 53 52
        </DataArray>
        <DataArray type="Int32" Name="offsets" format="ascii" RangeMin="3" RangeMax="312">
          3 6 9 12 15 18
          21 24 27 30 33 36
          39 42 45 48 51 54
          57 60 63 66 69 72
          75 78 81 84 87 90
          93 96 99 102 105 108
          111 114 117 120 123 126
          129 132 135 138 141 144
          147 150 153 156 159 162
          165 168 171 174 177 180
          183 186 189 192 195 198
          201 204 207 210 213 216
          219 222 225 228 231 234
          237 240 243 246 249 252
          255 258 261 264 267 270
          273 276 279 282 285 288
          291 294 297 300 303 306
          309 312
        </DataArray>
      </Polys>
    </Piece>
  </PolyData>
</VTKFile>
