<?xml version="1.0"?>
<VTKFile type="PolyData" version="0.1" byte_order="LittleEndian" header_type="UInt32" compressor="vtkZLibDataCompressor">
  <PolyData>
    <Piece NumberOfPoints="122" NumberOfVerts="0" NumberOfLines="0" NumberOfStrips="0" NumberOfPolys="130">
      <PointData Normals="Normals">
        <DataArray type="Float32" Name="Normals" NumberOfComponents="3" format="ascii" RangeMin="0.9999994319508856" RangeMax="1.000000674794917">
          0.7390109896659851 -0.61142498254776 0.2828820049762726 0.45445799827575684 -0.7851390242576599 -0.42074400186538696
          0.09275899827480316 -0.26954299211502075 -0.9585109949111938 0.32218998670578003 -0.12536300718784332 -0.9383379817008972
          -0.2714349925518036 0.23043100535869598 -0.9344649910926819 -0.4656760096549988 0.17542299628257751 -0.867393970489502
          -0.12197200208902359 -0.01360199972987175 -0.9924399852752686 -0.18090400099754333 -0.0037930000107735395 -0.983493983745575
          -0.1887120008468628 0.012112000025808811 -0.9819579720497131 -0.2567340135574341 0.0337349995970726 -0.9658929705619812
          -0.15936599671840668 0.027778999879956245 -0.9868289828300476 0.055688999593257904 0.045570001006126404 -0.9974079728126526
          0.18088999390602112 0.3373720049858093 -0.9238290190696716 0.5180559754371643 0.7391629815101624 -0.43041500449180603
          0.7973930239677429 -0.5343760251998901 -0.28036800026893616 0.5646200180053711 -0.17040400207042694 -0.8075680136680603
          0.6960729956626892 0.014801000244915485 -0.7178189754486084 0.34382298588752747 0.136572003364563 -0.9290500283241272
          0.4983690083026886 0.046751998364925385 -0.8657039999961853 0.7553449869155884 -0.028808999806642532 -0.6546940207481384
          0.7081350088119507 -0.005007000174373388 -0.7060589790344238 0.6487320065498352 0.017247000709176064 -0.7608209848403931
          0.3714059889316559 0.042785000056028366 -0.9274839758872986 -0.0086260000243783 0.017308000475168228 -0.9998130202293396
          -0.009341999888420105 0.03653400018811226 -0.9992889761924744 -0.0740170031785965 0.4595009982585907 -0.8850880265235901
          0.8253229856491089 -0.5620089769363403 -0.054662998765707016 0.9357500076293945 -0.12825000286102295 -0.32851898670196533
          0.9409130215644836 0.18489299714565277 -0.283719003200531 0.9221580028533936 0.08369400352239609 -0.3776499927043915
          0.9522089958190918 0.010722000151872635 -0.30525800585746765 0.9797559976577759 -0.025479000061750412 -0.19856899976730347
          0.971917986869812 -0.000039999998989515007 -0.23532000184059143 0.9621090292930603 0.019790999591350555 -0.2719449996948242
          0.9226970076560974 -0.00912499986588955 -0.38541901111602783 0.7724940180778503 -0.31012600660324097 -0.5541430115699768
          0.7730579972267151 -0.09293299913406372 -0.6274909973144531 0.4600510001182556 0.7698180079460144 -0.44241800904273987
          0.7861040234565735 -0.6151310205459595 0.060447998344898224 0.9557080268859863 -0.09833499789237976 0.27740299701690674
          0.9268500208854675 0.27782198786735535 0.2525149881839752 0.9906859993934631 0.06503800302743912 0.11963199824094772
          0.9523980021476746 0.007110000122338533 0.3047749996185303 0.8339959979057312 -0.02407900057733059 0.5512449741363525
          0.9555860161781311 0.003573999973013997 0.2946920096874237 0.9994680285453796 0.020672999322414398 0.02522600069642067
          0.9989629983901978 -0.04138899967074394 -0.01896199956536293 0.8262869715690613 -0.4944419860839844 0.269771009683609
          0.8400899767875671 -0.1988690048456192 0.5046780109405518 0.6061170101165771 0.7942060232162476 0.04312799870967865
          0.6643310189247131 -0.6608840227127075 0.34913599491119385 0.6140559911727905 -0.043133001774549484 0.788083016872406
          0.5789719820022583 0.26519501209259033 0.7710139751434326 0.7429959774017334 0.04500000178813934 0.6677809953689575
          0.4102630019187927 0.01006300002336502 0.9119120240211487 0.03414899855852127 -0.015007000416517258 0.9993039965629578
          0.4802899956703186 -0.01942400075495243 0.876895010471344 0.8658850193023682 -0.03418700024485588 0.4990740120410919
          0.9256839752197266 -0.06378000229597092 0.37288200855255127 0.6178820133209229 -0.15312600135803223 0.7712159752845764
          0.4027409851551056 0.17858700454235077 0.8977230191230774 0.5853909850120544 0.802003026008606 0.11878199875354767
          0.2532930076122284 -0.7132459878921509 0.6535469889640808 -0.052480001002550125 0.0769210010766983 0.9956550002098083
          0.18079499900341034 0.22340700030326843 0.9578109979629517 0.3315559923648834 0.004064999986439943 0.9434270262718201
          -0.12211500108242035 0.008504999801516533 0.9924790263175964 -0.11288800090551376 -0.014298000372946262 0.9935050010681152
          0.5384039878845215 -0.06368599832057953 0.8402770161628723 0.7071130275726318 -0.15243500471115112 0.6904739737510681
          0.49678999185562134 -0.1510169953107834 0.8546310067176819 -0.023354999721050262 0.3105520009994507 0.9502689838409424
          0.210999995470047 0.5867379903793335 0.7818040251731873 0.595300018787384 0.7977100014686584 0.09631700068712234
          -0.06885600090026855 -0.6562920212745667 0.7513589859008789 -0.5864840149879456 0.006757999770343304 0.8099330067634583
          -0.17402499914169312 0.1361140012741089 0.975288987159729 -0.2036599963903427 0.0021180000621825457 0.9790390133857727
          -0.7815070152282715 0.029749000445008278 0.6231870055198669 -0.7079799771308899 -0.0013419999741017818 0.7062309980392456
          -0.037046000361442566 -0.10337600111961365 0.9939519762992859 -0.20679399371147156 -0.389957994222641 0.8973119854927063
          -0.9196280241012573 -0.16758699715137482 0.3552440106868744 -0.7780410051345825 0.21711599826812744 0.5895029902458191
          -0.14855599403381348 0.5720940232276917 0.8066220283508301 0.555446982383728 0.8045600056648254 0.2101459950208664
          -0.025282999500632286 -0.8714200258255005 0.48988500237464905 -0.8460819721221924 -0.3930020034313202 0.36013299226760864
          -0.8037300109863281 -0.20316700637340546 0.5592330098152161 -0.8821380138397217 0.24605700373649597 0.4016079902648926
          -0.9489740133285522 0.3107759952545166 0.05354699864983559 -0.9927889704704285 0.060513999313116074 0.10348200052976608
          -0.9753119945526123 -0.00647599995136261 0.22073499858379364 -0.9990289807319641 -0.02163100056350231 0.03837300091981888
          -0.9966179728507996 -0.03089899942278862 -0.07613799721002579 -0.9763069748878479 -0.09659899771213531 0.19362899661064148
          -0.8115779757499695 0.28974801301956177 0.5073339939117432 0.28490200638771057 0.9299160242080688 0.2325659990310669
          0.09715600311756134 -0.9821079969406128 -0.16132000088691711 -0.7305729985237122 -0.6001369953155518 -0.32572999596595764
          -0.7880319952964783 -0.41225099563598633 -0.4572260081768036 -0.903240978717804 0.42398199439048767 -0.06629899889230728
          -0.796513020992279 0.4700790047645569 0.38025298714637756 -0.9668359756469727 0.09175699949264526 0.2383439987897873
          -0.9960479736328125 0.010014000348746777 0.08825299888849258 -0.9999960064888 -0.002560999942943454 0.0006380000268109143
          -0.9844629764556885 -0.03254900127649307 -0.17254599928855896 -0.889831006526947 -0.14175499975681305 -0.4337120056152344
          -0.7579579949378967 0.15897099673748016 -0.6326360106468201 0.3341740071773529 0.7554290294647217 -0.5636079907417297
          0.2196130007505417 -0.9339920282363892 -0.2818320095539093 -0.31885600090026855 -0.4732480049133301 -0.8211989998817444
          -0.18350400030612946 -0.27595600485801697 -0.9434909820556641 -0.7022669911384583 0.372298002243042 -0.6068069934844971
          -0.9347379803657532 0.339805006980896 0.1039080023765564 -0.9869880080223083 0.04732299968600273 -0.15367600321769714
          -0.9618139863014221 0.0056779999285936356 -0.27364298701286316 -0.9208880066871643 0.0013589999871328473 -0.3898249864578247
          -0.7496010065078735 -0.011447000317275524 -0.6617910265922546 -0.23417900502681732 -0.06977000087499619 -0.9696869850158691
          0.15097999572753906 0.07506699860095978 -0.9856820106506348 0.5637030005455017 0.34953001141548157 -0.7483770251274109
          <InformationKey name="L2_NORM_RANGE" location="vtkDataArray" length="2">
            <Value index="0">
              0.99999943195
            </Value>
            <Value index="1">
              1.0000006748
            </Value>
          </InformationKey>
        </DataArray>
      </PointData>
      <CellData>
      </CellData>
      <Points>
        <DataArray type="Float32" Name="Points" NumberOfComponents="3" format="ascii" RangeMin="0.06396433447698206" RangeMax="0.43254161729322477">
          -0.004000000189989805 -0.4254409968852997 0.029999999329447746 -0.004000000189989805 -0.4318229854106903 0.02459999918937683
          -0.004000000189989805 -0.42208200693130493 0.024059999734163284 -0.004000000189989805 -0.4106599986553192 0.020010000094771385
          -0.004000000189989805 -0.392520010471344 0.022439999505877495 -0.004000000189989805 -0.38244399428367615 0.024329999461770058
          -0.004000000189989805 -0.32298898696899414 0.021090000867843628 -0.004000000189989805 -0.25547099113464355 0.020010000094771385
          -0.004000000189989805 -0.20542100071907043 0.020010000094771385 -0.004000000189989805 -0.15436400473117828 0.021630000323057175
          -0.004000000189989805 -0.12043700367212296 0.024329999461770058 -0.004000000189989805 -0.08382300287485123 0.026489999145269394
          -0.004000000189989805 -0.07038699835538864 0.025949999690055847 -0.004000000189989805 -0.06568499654531479 0.029999999329447746
          -0.0003499999875202775 -0.42443299293518066 0.02497600018978119 0.0017130000051110983 -0.41536301374435425 0.022136999294161797
          0.0012369999894872308 -0.40411099791526794 0.022792000323534012 0.00012599999899975955 -0.38781899213790894 0.024320999160408974
          -0.000826000003144145 -0.3654809892177582 0.025630999356508255 0.0008399999933317304 -0.3011550009250641 0.023336999118328094
          0.001554999966174364 -0.22658400237560272 0.022353999316692352 0.0012369999894872308 -0.17636600136756897 0.022792000323534012
          0.00044299999717622995 -0.1259790062904358 0.0238840002566576 0.00012599999899975955 -0.10145899653434753 0.024320999160408974
          0.0011579999700188637 -0.08130499720573425 0.022901000455021858 -0.0004290000069886446 -0.06870800256729126 0.025085000321269035
          0.0026759998872876167 -0.4170440137386322 0.027830999344587326 0.008839000016450882 -0.40864500403404236 0.025828000158071518
          0.0034469999372959137 -0.3975600004196167 0.027580000460147858 0.0021619999315589666 -0.3831160068511963 0.027997000142931938
          0.0008789999992586672 -0.3485180139541626 0.02841399982571602 0.0031900000758469105 -0.27932101488113403 0.027664000168442726
          0.004474000073969364 -0.1976960003376007 0.027247000485658646 0.0034469999372959137 -0.14731000363826752 0.027580000460147858
          0.002420000033453107 -0.09759499877691269 0.027914000675082207 0.00395999988541007 -0.08247999846935272 0.02741299942135811
          0.009352000430226326 -0.07878600060939789 0.02566099911928177 0.0037040000315755606 -0.0670280009508133 0.027496999129652977
          0.0026759998872876167 -0.4170440137386322 0.032168999314308167 0.008839000016450882 -0.40864500403404236 0.03417100012302399
          0.0034469999372959137 -0.3975600004196167 0.032419998198747635 0.0021619999315589666 -0.3831160068511963 0.03200199827551842
          0.0008789999992586672 -0.3485180139541626 0.031585998833179474 0.0031900000758469105 -0.27932101488113403 0.032336000353097916
          0.004474000073969364 -0.1976960003376007 0.03275299817323685 0.0034469999372959137 -0.14731000363826752 0.032419998198747635
          0.002420000033453107 -0.09759499877691269 0.032085999846458435 0.00395999988541007 -0.08247999846935272 0.032586999237537384
          0.009352000430226326 -0.07878600060939789 0.034338999539613724 0.0037040000315755606 -0.0670280009508133 0.032503001391887665
          0.001475999946705997 -0.41989898681640625 0.03753599897027016 0.004093999974429607 -0.4098210036754608 0.04114000126719475
          -0.0002699999895412475 -0.39470601081848145 0.03513399884104729 -0.0005089999758638442 -0.3700149953365326 0.03480499982833862
          -0.0009850000496953726 -0.30199599266052246 0.03415000066161156 -0.0009050000226125121 -0.2183540016412735 0.03426000103354454
          0.0003640000068116933 -0.1607459932565689 0.036006998270750046 0.001554999966174364 -0.12194900214672089 0.03764500096440315
          0.0035379999317228794 -0.09171699732542038 0.040376000106334686 0.0038560000248253345 -0.07777699828147888 0.04081299901008606
          0.003140999935567379 -0.07257100194692612 0.03982999920845032 -0.00019099999917671084 -0.0643410012125969 0.035241998732089996
          -0.004000000189989805 -0.4227530062198639 0.0416099987924099 -0.004000000189989805 -0.4109959900379181 0.044039998203516006
          -0.004000000189989805 -0.39184999465942383 0.034860000014305115 -0.004000000189989805 -0.3569149971008301 0.03539999946951866
          -0.004000000189989805 -0.25547099113464355 0.03513000160455704 -0.004000000189989805 -0.15738700330257416 0.03297000005841255
          -0.004000000189989805 -0.12379699945449829 0.03593999892473221 -0.004000000189989805 -0.09658800065517426 0.04106999933719635
          -0.004000000189989805 -0.08584000170230865 0.048900000751018524 -0.004000000189989805 -0.07307499647140503 0.04836000129580498
          -0.004000000189989805 -0.06635600328445435 0.04025999829173088 -0.004000000189989805 -0.06165299937129021 0.034860000014305115
          -0.00804699957370758 -0.4259450137615204 0.03556999936699867 -0.010665000416338444 -0.41502898931503296 0.03917500004172325
          -0.009712999686598778 -0.4020960032939911 0.037863001227378845 -0.010110000148415565 -0.3809340000152588 0.0384100005030632
          -0.00828499998897314 -0.32853201031684875 0.03589800000190735 -0.006459999829530716 -0.26958000659942627 0.033385999500751495
          -0.006777000147849321 -0.21936200559139252 0.03382200002670288 -0.008442999795079231 -0.15604299306869507 0.03611600026488304
          -0.010745000094175339 -0.117078997194767 0.03928399831056595 -0.011220999993383884 -0.09440500289201736 0.03993900120258331
          -0.01193500030785799 -0.06904300302267075 0.040922001004219055 -0.007094999775290489 -0.05913500115275383 0.03426000103354454
          -0.006054999772459269 -0.4291360080242157 0.030667999759316444 -0.012217000126838684 -0.41905900835990906 0.032669998705387115
          -0.017866000533103943 -0.412339985370636 0.03450499847531319 -0.018636999651789665 -0.40494999289512634 0.034756001085042953
          -0.012986999936401844 -0.4015919864177704 0.03292100131511688 -0.00913500040769577 -0.3817729949951172 0.031668998301029205
          -0.0073379999957978725 -0.31492799520492554 0.031083999201655388 -0.007852000184357166 -0.21549899876117706 0.031252000480890274
          -0.007852000184357166 -0.14831799268722534 0.031252000480890274 -0.009906000457704067 -0.11573400348424911 0.031918998807668686
          -0.01992099918425083 -0.07173100113868713 0.035172998905181885 -0.009393000043928623 -0.05661499872803688 0.031752001494169235
          -0.006054999772459269 -0.4291360080242157 0.029332000762224197 -0.012217000126838684 -0.41905900835990906 0.027329999953508377
          -0.017866000533103943 -0.412339985370636 0.025495000183582306 -0.018636999651789665 -0.40494999289512634 0.02524399943649769
          -0.012986999936401844 -0.4015919864177704 0.02707899920642376 -0.00913500040769577 -0.3817729949951172 0.028331000357866287
          -0.0073379999957978725 -0.31492799520492554 0.028915999457240105 -0.007852000184357166 -0.21549899876117706 0.028748000040650368
          -0.007852000184357166 -0.14831799268722534 0.028748000040650368 -0.009906000457704067 -0.11573400348424911 0.028080999851226807
          -0.01992099918425083 -0.07173100113868713 0.024826999753713608 -0.009393000043928623 -0.05661499872803688 0.028248000890016556
          -0.006221999879926443 -0.4304800033569336 0.026941999793052673 -0.00828499998897314 -0.4205709993839264 0.024102000519633293
          -0.011220999993383884 -0.4115000069141388 0.02006099931895733 -0.010745000094175339 -0.39873600006103516 0.020716000348329544
          -0.008442999795079231 -0.39201799035072327 0.0238840002566576 -0.008205999620258808 -0.35238200426101685 0.02421100065112114
          -0.007966999895870686 -0.28519999980926514 0.024538999423384666 -0.008125999942421913 -0.21046000719070435 0.024320999160408974
          -0.0076500000432133675 -0.15133999288082123 0.02497600018978119 -0.00749099999666214 -0.11808600276708603 0.02519500069320202
          -0.009952000342309475 -0.07777699828147888 0.02180900052189827 -0.006856999825686216 -0.06350100040435791 0.026068000122904778
          <InformationKey name="L2_NORM_RANGE" location="vtkDataArray" length="2">
            <Value index="0">
              0.063964334477
            </Value>
            <Value index="1">
              0.43254161729
            </Value>
          </InformationKey>
        </DataArray>
      </Points>
      <Verts>
        <DataArray type="Int64" Name="connectivity" format="ascii" RangeMin="1e+299" RangeMax="-1e+299">
        </DataArray>
        <DataArray type="Int64" Name="offsets" format="ascii" RangeMin="1e+299" RangeMax="-1e+299">
        </DataArray>
      </Verts>
      <Lines>
        <DataArray type="Int64" Name="connectivity" format="ascii" RangeMin="1e+299" RangeMax="-1e+299">
        </DataArray>
        <DataArray type="Int64" Name="offsets" format="ascii" RangeMin="1e+299" RangeMax="-1e+299">
        </DataArray>
      </Lines>
      <Strips>
        <DataArray type="Int64" Name="connectivity" format="ascii" RangeMin="1e+299" RangeMax="-1e+299">
        </DataArray>
        <DataArray type="Int64" Name="offsets" format="ascii" RangeMin="1e+299" RangeMax="-1e+299">
        </DataArray>
      </Strips>
      <Polys>
        <DataArray type="Int32" Name="connectivity" format="ascii" RangeMin="0" RangeMax="121">
          0 1 14 1 2 15
          14 2 3 16 15 3
          4 17 16 4 5 18
          17 5 6 19 18 6
          7 20 19 7 8 21
          20 8 9 22 21 9
          10 23 22 10 11 24
          23 11 12 25 24 12
          13 25 0 14 26 14
          15 27 26 15 16 28
          27 16 17 29 28 17
          18 30 29 18 19 31
          30 19 20 32 31 20
          21 33 32 21 22 34
          33 22 23 35 34 23
          24 36 35 24 25 37
          36 25 13 37 0 26
          38 26 27 39 38 27
          28 40 39 28 29 41
          40 29 30 42 41 30
          31 43 42 31 32 44
          43 32 33 45 44 33
          34 46 45 34 35 47
          46 35 36 48 47 36
          37 49 48 37 13 49
          0 38 50 38 39 51
          50 39 40 52 51 40
          41 53 52 41 42 54
          53 42 43 55 54 43
          44 56 55 44 45 57
          56 45 46 58 57 46
          47 59 58 47 48 60
          59 48 49 61 60 49
          13 61 0 50 62 50
          51 63 62 51 52 64
          63 52 53 65 64 53
          54 66 65 54 55 67
          66 55 56 68 67 56
          57 69 68 57 58 70
          69 58 59 71 70 59
          60 72 71 60 61 73
          72 61 13 73 0 62
          74 62 63 75 74 63
          64 76 75 64 65 77
          76 65 66 78 77 66
          67 79 78 67 68 80
          79 68 69 81 80 69
          70 82 81 70 71 83
          82 71 72 84 83 72
          73 85 84 73 13 85
          0 74 86 74 75 87
          86 75 76 88 87 76
          77 89 88 77 78 90
          89 78 79 91 90 79
          80 92 91 80 81 93
          92 81 82 94 93 82
          83 95 94 83 84 96
          95 84 85 97 96 85
          13 97 0 86 98 86
          87 99 98 87 88 100
          99 88 89 101 100 89
          90 102 101 90 91 103
          102 91 92 104 103 92
          93 105 104 93 94 106
          105 94 95 107 106 95
          96 108 107 96 97 109
          108 97 13 109 0 98
          110 98 99 111 110 99
          100 112 111 100 101 113
          112 101 102 114 113 102
          103 115 114 103 104 116
          115 104 105 117 116 105
          106 118 117 106 107 119
          118 107 108 120 119 108
          109 121 120 109 13 121
          0 110 1 110 111 2
          1 111 112 3 2 112
          113 4 3 113 114 5
          4 114 115 6 5 115
          116 7 6 116 117 8
          7 117 118 9 8 118
          119 10 9 119 120 11
          10 120 121 12 11 121
          13 12
        </DataArray>
        <DataArray type="Int32" Name="offsets" format="ascii" RangeMin="3" RangeMax="500">
          3 7 11 15 19 23
          27 31 35 39 43 47
          50 53 57 61 65 69
          73 77 81 85 89 93
          97 100 103 107 111 115
          119 123 127 131 135 139
          143 147 150 153 157 161
          165 169 173 177 181 185
          189 193 197 200 203 207
          211 215 219 223 227 231
          235 239 243 247 250 253
          257 261 265 269 273 277
          281 285 289 293 297 300
          303 307 311 315 319 323
          327 331 335 339 343 347
          350 353 357 361 365 369
          373 377 381 385 389 393
          397 400 403 407 411 415
          419 423 427 431 435 439
          443 447 450 453 457 461
          465 469 473 477 481 485
          489 493 497 500
        </DataArray>
      </Polys>
    </Piece>
  </PolyData>
</VTKFile>
