<?xml version="1.0"?>
<VTKFile type="PolyData" version="0.1" byte_order="LittleEndian" header_type="UInt32" compressor="vtkZLibDataCompressor">
  <PolyData>
    <Piece NumberOfPoints="122" NumberOfVerts="0" NumberOfLines="0" NumberOfStrips="0" NumberOfPolys="240">
      <PointData Normals="Normals">
        <DataArray type="Float32" Name="Normals" NumberOfComponents="3" format="ascii" RangeMin="0.9999993525913489" RangeMax="1.0000006402584274">
          0.8746240139007568 -0.48380300402641296 -0.031094999983906746 0.4629499912261963 -0.7264670133590698 0.507860004901886
          0.7390109896659851 -0.61142498254776 -0.2828820049762726 0.8052110075950623 -0.5665069818496704 -0.17522799968719482
          0.38822799921035767 -0.07871299982070923 0.9181960225105286 0.9622899889945984 -0.06411000341176987 0.26436200737953186
          -0.34010401368141174 -0.8910049796104431 0.30073198676109314 -0.17315800487995148 -0.17411400377750397 0.9693819880485535
          0.8312129974365234 -0.5523849725723267 -0.06290200352668762 0.762594997882843 -0.5125920176506042 -0.3945850133895874
          0.11683899909257889 -0.6696749925613403 -0.7334060072898865 -0.36540499329566956 -0.7530590295791626 -0.5471569895744324
          -0.3490769863128662 -0.9151399731636047 -0.20165500044822693 -0.33379700779914856 -0.9396139979362488 0.07553700357675552
          0.9490090012550354 -0.09934999793767929 -0.29918500781059265 0.6098660230636597 0.0324379988014698 0.7918400168418884
          0.9105910062789917 0.19411900639533997 0.364886999130249 0.9077460169792175 0.2730239927768707 -0.31852099299430847
          -0.4958609938621521 -0.4312390089035034 0.7537609934806824 0.21671199798583984 -0.10792499780654907 0.9702519774436951
          0.6704580187797546 -0.0018019999843090773 -0.7419450283050537 -0.036090999841690063 0.04672500118613243 -0.9982560276985168
          -0.6617580056190491 -0.2239370048046112 -0.715490996837616 -0.8058120012283325 -0.5699419975280762 -0.16072699427604675
          -0.7532719969749451 -0.5748569965362549 0.31956300139427185 0.4437769949436188 0.23736999928951263 -0.8641279935836792
          0.5629640221595764 0.09183800220489502 0.8213629722595215 0.956803023815155 0.06973300129175186 0.28224998712539673
          0.9786109924316406 0.06174200028181076 -0.1962369978427887 0.5501530170440674 0.02647400088608265 -0.8346440196037292
          -0.2918429970741272 -0.22908200323581696 0.9286280274391174 0.06984599679708481 0.12454400211572647 0.989753007888794
          0.19732099771499634 0.21618899703025818 -0.9562050104141235 -0.2856610119342804 0.10043700039386749 -0.9530529975891113
          -0.8356159925460815 -0.2859230041503906 -0.46903499960899353 -0.8006690144538879 -0.38884401321411133 0.4557740092277527
          0.21430400013923645 0.004253000020980835 -0.9767580032348633 0.5752580165863037 0.03711400181055069 0.8171300292015076
          0.9543430209159851 0.008070999756455421 0.29860401153564453 0.9505710005760193 0.01130400039255619 -0.3103030025959015
          0.6261109709739685 0.015200000256299973 -0.7795860171318054 -0.01259899977594614 0.020243000239133835 -0.9997159838676453
          -0.46126899123191833 0.21850000321865082 0.8599349856376648 0.01396500039845705 0.13080400228500366 0.9913100004196167
          -0.13116499781608582 0.09890499711036682 -0.9864140152931213 -0.8285419940948486 0.4844200015068054 -0.2808130085468292
          -0.9254220128059387 0.3438839912414551 0.15918199717998505 -0.8170139789581299 0.06668499857187271 -0.5727480053901672
          0.7633829712867737 -0.029934000223875046 0.645251989364624 0.9820899963378906 -0.025882000103592873 0.18662600219249725
          0.800154983997345 -0.03049200028181076 -0.5990179777145386 -0.10516399890184402 -0.022763000801205635 -0.994193971157074
          -0.017777999863028526 -0.010254999622702599 -0.9997889995574951 -0.8264570236206055 0.02239600010216236 -0.5625540018081665
          -0.723691999912262 0.3162679970264435 0.6133880019187927 0.10530500113964081 -0.02524299919605255 0.9941200017929077
          -0.9053559899330139 0.3323509991168976 0.2643350064754486 -0.8343409895896912 0.5397459864616394 -0.11201900243759155
          -0.9814959764480591 0.06454399973154068 0.1802770048379898 0.6741399765014648 -0.0008040000102482736 0.7386029958724976
          0.967818021774292 0.002486000070348382 0.2516379952430725 0.9213089942932129 -0.009960000403225422 -0.38870298862457275
          0.02804500050842762 -0.05100199952721596 -0.9983050227165222 -0.001016999944113195 -0.08592499792575836 -0.996300995349884
          -0.31166601181030273 -0.032839998602867126 -0.9496240019798279 -0.9911050200462341 0.00459699984639883 -0.1330060064792633
          -0.8526189923286438 0.02556000091135502 0.5219069719314575 -0.16130800545215607 -0.0023560000117868185 0.9869009852409363
          -0.987421989440918 0.09525399655103683 -0.1261879950761795 -0.9966830015182495 0.010879999957978725 -0.08065100014209747
          0.6517289876937866 0.016195999458432198 0.758279025554657 0.961143970489502 0.019571000710129738 0.27535200119018555
          0.9881979823112488 -0.0015040000434964895 -0.15317699313163757 0.45899999141693115 -0.12147500365972519 -0.880092978477478
          0.05938100069761276 -0.22989700734615326 -0.9714019894599915 -0.586247980594635 -0.09352699667215347 -0.8047149777412415
          -0.9948310256004333 -0.008078999817371368 -0.10122600197792053 -0.999925971031189 -0.0013589999871328473 -0.012102000415325165
          -0.9470019936561584 0.0051449998281896114 0.32118698954582214 -0.2218800038099289 0.015042000450193882 0.9749580025672913
          -0.939857006072998 0.005890000145882368 0.34151700139045715 0.6354609727859497 0.005886000115424395 0.7721099853515625
          0.9861369729042053 -0.04012500122189522 0.16100600361824036 0.9990900158882141 -0.027276000007987022 0.0328029990196228
          0.8781269788742065 -0.04255300015211105 -0.4765309989452362 -0.04453999921679497 -0.1889680027961731 -0.9809730052947998
          -0.857358992099762 -0.1634480059146881 -0.4880790114402771 -0.9966610074043274 -0.03820599988102913 0.07215899974107742
          -0.9921069741249084 -0.020586999133229256 0.1236950010061264 -0.8748329877853394 0.018099000677466393 0.4840860068798065
          -0.33148398995399475 0.041669998317956924 0.9425399899482727 0.4221859872341156 -0.06871700286865234 0.9039009809494019
          0.8932650089263916 -0.44697999954223633 -0.047814998775720596 0.9342859983444214 -0.3167620003223419 -0.1636189967393875
          0.9087870121002197 0.13755500316619873 -0.3939340114593506 0.12020300328731537 0.31129300594329834 -0.9426810145378113
          -0.8275700211524963 -0.06212000176310539 -0.5579149723052979 -0.9895110130310059 -0.1390639990568161 -0.03910600021481514
          -0.9120360016822815 -0.12213499844074249 0.3915019929409027 -0.5182979702949524 -0.025838999077677727 0.8548099994659424
          -0.2901900112628937 0.02908799983561039 0.9565269947052002 0.04061700031161308 0.07743299752473831 0.9961699843406677
          0.958636999130249 -0.003748999908566475 0.28460800647735596 0.8860740065574646 -0.20885899662971497 -0.41382500529289246
          0.643435001373291 0.3039590120315552 -0.7025660276412964 0.3019700050354004 0.6224480271339417 -0.7220609784126282
          -0.4357669949531555 0.4403960108757019 -0.784958004951477 -0.9025660157203674 0.23216600716114044 -0.36259400844573975
          -0.7561929821968079 0.12602199614048004 0.6420990228652954 0.06501799821853638 0.034749001264572144 0.9972789883613586
          -0.07764600217342377 0.013155000284314156 0.9968940019607544 -0.19713500142097473 0.3859440088272095 0.9012129902839661
          0.4288319945335388 0.6837360262870789 0.5904300212860107 0.6866130232810974 0.7262279987335205 -0.03398500010371208
          0.6475340127944946 0.7422040104866028 -0.17272399365901947 0.602213978767395 0.7708830237388611 -0.20755000412464142
          0.41836199164390564 0.8218780159950256 -0.3866400122642517 0.026117000728845596 0.9251360297203064 -0.3787359893321991
          -0.012659999541938305 0.8707320094108582 0.49159500002861023 0.4351060092449188 0.3547239899635315 0.8275589942932129
          0.2884350121021271 0.2572929859161377 0.9222829937934875 0.5180559754371643 0.7391629815101624 0.43041500449180603
          <InformationKey name="L2_NORM_RANGE" location="vtkDataArray" length="2">
            <Value index="0">
              0.99999935259
            </Value>
            <Value index="1">
              1.0000006403
            </Value>
          </InformationKey>
        </DataArray>
      </PointData>
      <CellData>
      </CellData>
      <Points>
        <DataArray type="Float32" Name="Points" NumberOfComponents="3" format="ascii" RangeMin="0.06396433447698206" RangeMax="0.43254161729322477">
          -0.0003499999875202775 -0.42443299293518066 -0.02497600018978119 -0.004000000189989805 -0.4318229854106903 -0.02459999918937683
          -0.004000000189989805 -0.4254409968852997 -0.029999999329447746 0.0026759998872876167 -0.4170440137386322 -0.027830999344587326
          0.0017130000051110983 -0.41536301374435425 -0.022136999294161797 0.008839000016450882 -0.40864500403404236 -0.025828000158071518
          -0.006221999879926443 -0.4304800033569336 -0.026941999793052673 -0.004000000189989805 -0.42208200693130493 -0.024059999734163284
          0.0026759998872876167 -0.4170440137386322 -0.032168999314308167 0.001475999946705997 -0.41989898681640625 -0.03753599897027016
          -0.004000000189989805 -0.4227530062198639 -0.0416099987924099 -0.00804699957370758 -0.4259450137615204 -0.03556999936699867
          -0.006054999772459269 -0.4291360080242157 -0.030667999759316444 -0.006054999772459269 -0.4291360080242157 -0.029332000762224197
          0.008839000016450882 -0.40864500403404236 -0.03417100012302399 0.0012369999894872308 -0.40411099791526794 -0.022792000323534012
          0.0034469999372959137 -0.3975600004196167 -0.027580000460147858 0.0034469999372959137 -0.3975600004196167 -0.032419998198747635
          -0.00828499998897314 -0.4205709993839264 -0.024102000519633293 -0.004000000189989805 -0.4106599986553192 -0.020010000094771385
          0.004093999974429607 -0.4098210036754608 -0.04114000126719475 -0.004000000189989805 -0.4109959900379181 -0.044039998203516006
          -0.010665000416338444 -0.41502898931503296 -0.03917500004172325 -0.012217000126838684 -0.41905900835990906 -0.032669998705387115
          -0.012217000126838684 -0.41905900835990906 -0.027329999953508377 -0.0002699999895412475 -0.39470601081848145 -0.03513399884104729
          0.00012599999899975955 -0.38781899213790894 -0.024320999160408974 0.0021619999315589666 -0.3831160068511963 -0.027997000142931938
          0.0021619999315589666 -0.3831160068511963 -0.03200199827551842 -0.0005089999758638442 -0.3700149953365326 -0.03480499982833862
          -0.011220999993383884 -0.4115000069141388 -0.02006099931895733 -0.004000000189989805 -0.392520010471344 -0.022439999505877495
          -0.004000000189989805 -0.39184999465942383 -0.034860000014305115 -0.009712999686598778 -0.4020960032939911 -0.037863001227378845
          -0.017866000533103943 -0.412339985370636 -0.03450499847531319 -0.017866000533103943 -0.412339985370636 -0.025495000183582306
          -0.004000000189989805 -0.3569149971008301 -0.03539999946951866 -0.000826000003144145 -0.3654809892177582 -0.025630999356508255
          0.0008789999992586672 -0.3485180139541626 -0.02841399982571602 0.0008789999992586672 -0.3485180139541626 -0.031585998833179474
          -0.0009850000496953726 -0.30199599266052246 -0.03415000066161156 -0.004000000189989805 -0.25547099113464355 -0.03513000160455704
          -0.010745000094175339 -0.39873600006103516 -0.020716000348329544 -0.004000000189989805 -0.38244399428367615 -0.024329999461770058
          -0.010110000148415565 -0.3809340000152588 -0.0384100005030632 -0.018636999651789665 -0.40494999289512634 -0.034756001085042953
          -0.018636999651789665 -0.40494999289512634 -0.02524399943649769 -0.00828499998897314 -0.32853201031684875 -0.03589800000190735
          0.0008399999933317304 -0.3011550009250641 -0.023336999118328094 0.0031900000758469105 -0.27932101488113403 -0.027664000168442726
          0.0031900000758469105 -0.27932101488113403 -0.032336000353097916 -0.0009050000226125121 -0.2183540016412735 -0.03426000103354454
          -0.004000000189989805 -0.15738700330257416 -0.03297000005841255 -0.006459999829530716 -0.26958000659942627 -0.033385999500751495
          -0.008442999795079231 -0.39201799035072327 -0.0238840002566576 -0.004000000189989805 -0.32298898696899414 -0.021090000867843628
          -0.012986999936401844 -0.4015919864177704 -0.03292100131511688 -0.012986999936401844 -0.4015919864177704 -0.02707899920642376
          -0.00913500040769577 -0.3817729949951172 -0.031668998301029205 0.001554999966174364 -0.22658400237560272 -0.022353999316692352
          0.004474000073969364 -0.1976960003376007 -0.027247000485658646 0.004474000073969364 -0.1976960003376007 -0.03275299817323685
          0.0003640000068116933 -0.1607459932565689 -0.036006998270750046 -0.004000000189989805 -0.12379699945449829 -0.03593999892473221
          -0.006777000147849321 -0.21936200559139252 -0.03382200002670288 -0.0073379999957978725 -0.31492799520492554 -0.031083999201655388
          -0.008205999620258808 -0.35238200426101685 -0.02421100065112114 -0.004000000189989805 -0.25547099113464355 -0.020010000094771385
          -0.00913500040769577 -0.3817729949951172 -0.028331000357866287 -0.0073379999957978725 -0.31492799520492554 -0.028915999457240105
          0.0012369999894872308 -0.17636600136756897 -0.022792000323534012 0.0034469999372959137 -0.14731000363826752 -0.027580000460147858
          0.0034469999372959137 -0.14731000363826752 -0.032419998198747635 0.001554999966174364 -0.12194900214672089 -0.03764500096440315
          -0.004000000189989805 -0.09658800065517426 -0.04106999933719635 -0.008442999795079231 -0.15604299306869507 -0.03611600026488304
          -0.007852000184357166 -0.21549899876117706 -0.031252000480890274 -0.007852000184357166 -0.21549899876117706 -0.028748000040650368
          -0.007966999895870686 -0.28519999980926514 -0.024538999423384666 -0.004000000189989805 -0.20542100071907043 -0.020010000094771385
          -0.008125999942421913 -0.21046000719070435 -0.024320999160408974 0.00044299999717622995 -0.1259790062904358 -0.0238840002566576
          0.002420000033453107 -0.09759499877691269 -0.027914000675082207 0.002420000033453107 -0.09759499877691269 -0.032085999846458435
          0.0035379999317228794 -0.09171699732542038 -0.040376000106334686 -0.004000000189989805 -0.08584000170230865 -0.048900000751018524
          -0.010745000094175339 -0.117078997194767 -0.03928399831056595 -0.007852000184357166 -0.14831799268722534 -0.031252000480890274
          -0.007852000184357166 -0.14831799268722534 -0.028748000040650368 -0.0076500000432133675 -0.15133999288082123 -0.02497600018978119
          -0.004000000189989805 -0.15436400473117828 -0.021630000323057175 0.00012599999899975955 -0.10145899653434753 -0.024320999160408974
          0.00395999988541007 -0.08247999846935272 -0.02741299942135811 0.00395999988541007 -0.08247999846935272 -0.032586999237537384
          0.0038560000248253345 -0.07777699828147888 -0.04081299901008606 -0.004000000189989805 -0.07307499647140503 -0.04836000129580498
          -0.011220999993383884 -0.09440500289201736 -0.03993900120258331 -0.009906000457704067 -0.11573400348424911 -0.031918998807668686
          -0.009906000457704067 -0.11573400348424911 -0.028080999851226807 -0.00749099999666214 -0.11808600276708603 -0.02519500069320202
          -0.004000000189989805 -0.12043700367212296 -0.024329999461770058 0.0011579999700188637 -0.08130499720573425 -0.022901000455021858
          0.009352000430226326 -0.07878600060939789 -0.02566099911928177 0.009352000430226326 -0.07878600060939789 -0.034338999539613724
          0.003140999935567379 -0.07257100194692612 -0.03982999920845032 -0.004000000189989805 -0.06635600328445435 -0.04025999829173088
          -0.01193500030785799 -0.06904300302267075 -0.040922001004219055 -0.01992099918425083 -0.07173100113868713 -0.035172998905181885
          -0.01992099918425083 -0.07173100113868713 -0.024826999753713608 -0.009952000342309475 -0.07777699828147888 -0.02180900052189827
          -0.004000000189989805 -0.08382300287485123 -0.026489999145269394 -0.0004290000069886446 -0.06870800256729126 -0.025085000321269035
          0.0037040000315755606 -0.0670280009508133 -0.027496999129652977 0.0037040000315755606 -0.0670280009508133 -0.032503001391887665
          -0.00019099999917671084 -0.0643410012125969 -0.035241998732089996 -0.004000000189989805 -0.06165299937129021 -0.034860000014305115
          -0.007094999775290489 -0.05913500115275383 -0.03426000103354454 -0.009393000043928623 -0.05661499872803688 -0.031752001494169235
          -0.009393000043928623 -0.05661499872803688 -0.028248000890016556 -0.006856999825686216 -0.06350100040435791 -0.026068000122904778
          -0.004000000189989805 -0.07038699835538864 -0.025949999690055847 -0.004000000189989805 -0.06568499654531479 -0.029999999329447746
          <InformationKey name="L2_NORM_RANGE" location="vtkDataArray" length="2">
            <Value index="0">
              0.063964334477
            </Value>
            <Value index="1">
              0.43254161729
            </Value>
          </InformationKey>
        </DataArray>
      </Points>
      <Verts>
        <DataArray type="Int64" Name="connectivity" format="ascii" RangeMin="1e+299" RangeMax="-1e+299">
        </DataArray>
        <DataArray type="Int64" Name="offsets" format="ascii" RangeMin="1e+299" RangeMax="-1e+299">
        </DataArray>
      </Verts>
      <Lines>
        <DataArray type="Int64" Name="connectivity" format="ascii" RangeMin="1e+299" RangeMax="-1e+299">
        </DataArray>
        <DataArray type="Int64" Name="offsets" format="ascii" RangeMin="1e+299" RangeMax="-1e+299">
        </DataArray>
      </Lines>
      <Strips>
        <DataArray type="Int64" Name="connectivity" format="ascii" RangeMin="1e+299" RangeMax="-1e+299">
        </DataArray>
        <DataArray type="Int64" Name="offsets" format="ascii" RangeMin="1e+299" RangeMax="-1e+299">
        </DataArray>
      </Strips>
      <Polys>
        <DataArray type="Int32" Name="connectivity" format="ascii" RangeMin="0" RangeMax="121">
          0 1 2 3 0 2
          0 4 1 5 4 0
          3 5 0 1 6 2
          4 7 1 1 7 6
          8 3 2 9 8 2
          10 9 2 11 10 2
          12 11 2 13 12 2
          6 13 2 14 5 3
          8 14 3 4 15 7
          16 15 4 5 16 4
          17 16 5 14 17 5
          6 18 13 7 18 6
          15 19 7 7 19 18
          20 14 8 9 20 8
          21 20 9 10 21 9
          22 21 10 11 22 10
          23 22 11 12 23 11
          24 23 12 13 24 12
          18 24 13 25 17 14
          20 25 14 15 26 19
          27 26 15 16 27 15
          28 27 16 17 28 16
          29 28 17 25 29 17
          18 30 24 19 30 18
          26 31 19 19 31 30
          32 25 20 21 32 20
          33 32 21 22 33 21
          34 33 22 23 34 22
          35 34 23 24 35 23
          30 35 24 36 29 25
          32 36 25 26 37 31
          38 37 26 27 38 26
          39 38 27 28 39 27
          40 39 28 29 40 28
          41 40 29 36 41 29
          30 42 35 31 42 30
          37 43 31 31 43 42
          44 36 32 33 44 32
          45 44 33 34 45 33
          46 45 34 35 46 34
          42 46 35 47 41 36
          44 47 36 37 48 43
          49 48 37 38 49 37
          50 49 38 39 50 38
          51 50 39 40 51 39
          52 51 40 41 52 40
          53 52 41 47 53 41
          42 54 46 43 54 42
          48 55 43 43 55 54
          56 47 44 45 56 44
          57 56 45 46 57 45
          54 57 46 58 53 47
          56 58 47 48 59 55
          60 59 48 49 60 48
          61 60 49 50 61 49
          62 61 50 51 62 50
          63 62 51 52 63 51
          64 63 52 53 64 52
          65 64 53 58 65 53
          54 66 57 55 66 54
          59 67 55 55 67 66
          68 58 56 57 68 56
          66 68 57 69 65 58
          68 69 58 59 70 67
          71 70 59 60 71 59
          72 71 60 61 72 60
          73 72 61 62 73 61
          74 73 62 63 74 62
          75 74 63 64 75 63
          76 75 64 65 76 64
          77 76 65 69 77 65
          66 78 68 67 78 66
          70 79 67 67 79 78
          78 69 68 80 77 69
          78 80 69 70 81 79
          82 81 70 71 82 70
          83 82 71 72 83 71
          84 83 72 73 84 72
          85 84 73 74 85 73
          86 85 74 75 86 74
          87 86 75 76 87 75
          88 87 76 77 88 76
          89 88 77 80 89 77
          79 80 78 81 90 79
          79 90 80 90 89 80
          81 91 90 92 91 81
          82 92 81 93 92 82
          83 93 82 94 93 83
          84 94 83 95 94 84
          85 95 84 96 95 85
          86 96 85 97 96 86
          87 97 86 98 97 87
          88 98 87 99 98 88
          89 99 88 90 100 89
          100 99 89 91 100 90
          91 101 100 102 101 91
          92 102 91 103 102 92
          93 103 92 104 103 93
          94 104 93 105 104 94
          95 105 94 106 105 95
          96 106 95 107 106 96
          97 107 96 108 107 97
          98 108 97 109 108 98
          99 109 98 100 110 99
          110 109 99 101 110 100
          101 111 110 112 111 101
          102 112 101 113 112 102
          103 113 102 114 113 103
          104 114 103 115 114 104
          105 115 104 116 115 105
          106 116 105 117 116 106
          107 117 106 118 117 107
          108 118 107 119 118 108
          109 119 108 110 120 109
          120 119 109 111 120 110
          111 121 120 112 121 111
          113 121 112 114 121 113
          115 121 114 116 121 115
          117 121 116 118 121 117
          119 121 118 120 121 119
        </DataArray>
        <DataArray type="Int32" Name="offsets" format="ascii" RangeMin="3" RangeMax="720">
          3 6 9 12 15 18
          21 24 27 30 33 36
          39 42 45 48 51 54
          57 60 63 66 69 72
          75 78 81 84 87 90
          93 96 99 102 105 108
          111 114 117 120 123 126
          129 132 135 138 141 144
          147 150 153 156 159 162
          165 168 171 174 177 180
          183 186 189 192 195 198
          201 204 207 210 213 216
          219 222 225 228 231 234
          237 240 243 246 249 252
          255 258 261 264 267 270
          273 276 279 282 285 288
          291 294 297 300 303 306
          309 312 315 318 321 324
          327 330 333 336 339 342
          345 348 351 354 357 360
          363 366 369 372 375 378
          381 384 387 390 393 396
          399 402 405 408 411 414
          417 420 423 426 429 432
          435 438 441 444 447 450
          453 456 459 462 465 468
          471 474 477 480 483 486
          489 492 495 498 501 504
          507 510 513 516 519 522
          525 528 531 534 537 540
          543 546 549 552 555 558
          561 564 567 570 573 576
          579 582 585 588 591 594
          597 600 603 606 609 612
          615 618 621 624 627 630
          633 636 639 642 645 648
          651 654 657 660 663 666
          669 672 675 678 681 684
          687 690 693 696 699 702
          705 708 711 714 717 720
        </DataArray>
      </Polys>
    </Piece>
  </PolyData>
</VTKFile>
