<?xml version="1.0"?>
<VTKFile type="PolyData" version="0.1" byte_order="LittleEndian" header_type="UInt32" compressor="vtkZLibDataCompressor">
  <PolyData>
    <Piece NumberOfPoints="106" NumberOfVerts="0" NumberOfLines="0" NumberOfStrips="0" NumberOfPolys="113">
      <PointData Normals="Normals">
        <DataArray type="Float32" Name="Normals" NumberOfComponents="3" format="ascii" RangeMin="0.9999993497643693" RangeMax="1.0000006507874324">
          0.09229599684476852 -0.3165439963340759 0.9440770149230957 -0.49422499537467957 -0.6882749795913696 0.5310549736022949
          0.16647900640964508 -0.9749839901924133 0.14727599918842316 0.25477099418640137 -0.7266200184822083 0.6380559802055359
          0.031026000156998634 -0.14099499583244324 0.9895240068435669 -0.7456099987030029 -0.21789899468421936 0.6297510266304016
          0.3739979863166809 -0.46018901467323303 0.8052030205726624 -0.12336499989032745 -0.8554620146751404 0.5029579997062683
          0.6111040115356445 -0.02384299971163273 0.7911909818649292 -0.679955005645752 -0.2815279960632324 -0.6770550012588501
          -0.2646459937095642 -0.7803149819374084 -0.5666319727897644 -0.7562459707260132 -0.04807300120592117 -0.6525189876556396
          -0.05504700168967247 -0.9780200123786926 -0.20111499726772308 -0.012737000361084938 0.0052109998650848866 0.999904990196228
          -0.8357809782028198 0.004631999880075455 0.5490429997444153 0.5816890001296997 0.18091000616550446 0.793038010597229
          -0.826807975769043 0.0007869999972172081 -0.5624840259552002 0.8323580026626587 -0.5427110195159912 0.11244700103998184
          0.10908100008964539 -0.9928569793701172 0.04833799973130226 0.9624660015106201 0.12328100204467773 0.24178899824619293
          0.9043599963188171 0.35033899545669556 0.24371099472045898 -0.23045699298381805 -0.04913000017404556 -0.9718419909477234
          -0.07081399857997894 -0.6936219930648804 -0.7168499827384949 -0.02524399943649769 0.4059950113296509 -0.9135259985923767
          0.04250999912619591 0.4480290114879608 -0.8930079936981201 0.29766398668289185 -0.8611230254173279 -0.4121440052986145
          0.01206200011074543 -0.7083209753036499 -0.7057870030403137 -0.0354980006814003 -0.04432300105690956 0.998386025428772
          -0.8675670027732849 -0.036928001791238785 0.495947003364563 0.5574169754981995 0.059842001646757126 0.8280730247497559
          -0.8861629962921143 -0.043768998235464096 -0.4613020122051239 0.9470139741897583 0.21563200652599335 0.23804700374603271
          -0.22890399396419525 0.10525300353765488 -0.9677420258522034 0.8916569948196411 -0.4164449870586395 -0.17754200100898743
          0.9601479768753052 0.22993600368499756 -0.15888799726963043 0.8474760055541992 0.4534339904785156 -0.27601000666618347
          0.8807309865951538 0.2669689953327179 -0.39120399951934814 0.4466089904308319 -0.21023699641227722 -0.8696780204772949
          0.6224279999732971 0.5176050066947937 -0.5870850086212158 0.6414740085601807 0.5971840023994446 -0.48154300451278687
          0.5624399781227112 0.2768940031528473 -0.7790970206260681 -0.060401998460292816 -0.10931800305843353 0.992169976234436
          -0.8784080147743225 -0.07069099694490433 0.4726549983024597 0.6203020215034485 -0.0865669995546341 0.7795720100402832
          -0.9057130217552185 0.009120999835431576 -0.4237940013408661 0.9835839867591858 0.03996900096535683 0.17597100138664246
          -0.4201059937477112 0.09923399984836578 -0.9020329713821411 0.8695399761199951 0.12597399950027466 -0.4775260090827942
          0.3546769917011261 0.14011000096797943 -0.9244319796562195 -0.031228000298142433 -0.1494929939508438 0.9882689714431763
          -0.8419610261917114 -0.07572299987077713 0.534197986125946 0.6751700043678284 -0.1632709950208664 0.7193670272827148
          -0.9063910245895386 0.0926159992814064 -0.41216298937797546 0.9930570125579834 -0.04101800173521042 0.11024799942970276
          -0.4539560079574585 0.1639219969511032 -0.8758159875869751 0.8694239854812622 0.10357200354337692 -0.48308899998664856
          0.25458601117134094 0.15446199476718903 -0.9546350240707397 -0.10506200045347214 -0.1718209981918335 0.9795100092887878
          -0.8028650283813477 -0.06103000044822693 0.5930280089378357 0.6147140264511108 -0.21992099285125732 0.7574710249900818
          -0.9187939763069153 0.13526999950408936 -0.37083500623703003 0.9927909970283508 -0.09984499961137772 0.06631000339984894
          -0.44659000635147095 0.2058430016040802 -0.8707389831542969 0.8875839710235596 0.06921800225973129 -0.4554159939289093
          0.3035160005092621 0.1908320039510727 -0.9335209727287292 -0.27463498711586 -0.19007299840450287 0.9425749778747559
          -0.803551971912384 -0.051003001630306244 0.5930449962615967 0.45269501209259033 -0.2516779899597168 0.8554090261459351
          -0.9427430033683777 0.13859200477600098 -0.3033599853515625 0.983739972114563 -0.1406179964542389 0.1117279976606369
          -0.4440520107746124 0.23273000121116638 -0.8652480244636536 0.878915011882782 -0.01308399997651577 -0.47679999470710754
          0.33412599563598633 0.168162003159523 -0.9274060130119324 -0.30515098571777344 -0.23557600378990173 0.9227060079574585
          -0.8311480283737183 -0.07140800356864929 0.5514469742774963 0.423334002494812 -0.2677980065345764 0.8654900193214417
          -0.9656779766082764 0.09638600051403046 -0.24119499325752258 0.9701880216598511 -0.1624169945716858 0.17987899482250214
          -0.4590269923210144 0.21093200147151947 -0.8630189895629883 0.8271380066871643 -0.04955499991774559 -0.5598099827766418
          0.28349199891090393 0.13496500253677368 -0.949429988861084 -0.2521660029888153 -0.2547279894351959 0.9335560202598572
          -0.884598970413208 -0.07413800060749054 0.46042099595069885 0.44065698981285095 -0.4130840003490448 0.7969840168952942
          -0.9552029967308044 0.09937100112438202 -0.2787710130214691 0.9356529712677002 -0.3395940065383911 0.09606800228357315
          -0.5269740223884583 0.1379150003194809 -0.8386170268058777 0.807183027267456 -0.043825000524520874 -0.5886719822883606
          0.24464300274848938 0.09398999810218811 -0.9650470018386841 -0.17690500617027283 -0.3289799988269806 0.9276189804077148
          -0.8801230192184448 -0.1689170002937317 0.44367799162864685 0.37943801283836365 -0.430092990398407 0.8191739916801453
          -0.9466130137443542 0.0960640013217926 -0.30772799253463745 0.914667010307312 -0.38029900193214417 0.13695700466632843
          -0.5476710200309753 0.14448900520801544 -0.8241230249404907 0.7760249972343445 -0.0958390012383461 -0.6233779788017273
          0.19901899993419647 0.0634630024433136 -0.9779390096664429 0.05799400061368942 0.4717809855937958 0.8798059821128845
          -0.44208601117134094 0.6766350269317627 0.5888339877128601 0.21553699672222137 0.39073601365089417 0.8949130177497864
          -0.5751439929008484 0.8178319931030273 -0.019001999869942665 0.5935959815979004 0.6069369912147522 0.5284600257873535
          -0.1940000057220459 0.8927609920501709 -0.4066230058670044 0.6462969779968262 0.6689559817314148 -0.3671489953994751
          0.29410499334335327 0.7878950238227844 -0.541038990020752 0.12691299617290497 0.9560589790344238 0.2642799913883209
          <InformationKey name="L2_NORM_RANGE" location="vtkDataArray" length="2">
            <Value index="0">
              0.99999934976
            </Value>
            <Value index="1">
              1.0000006508
            </Value>
          </InformationKey>
        </DataArray>
      </PointData>
      <CellData>
      </CellData>
      <Points>
        <DataArray type="Float32" Name="Points" NumberOfComponents="3" format="ascii" RangeMin="0.02081411597315469" RangeMax="0.07867020695210036">
          -0.0018110000528395176 -0.06374000012874603 -0.031160999089479446 -0.005942999850958586 -0.06691399961709976 -0.03116299957036972
          -0.0015950000379234552 -0.06991899758577347 -0.034627001732587814 -0.0019340000580996275 -0.06908900290727615 -0.032301999628543854
          -0.001749000046402216 -0.058490999042987823 -0.029707999899983406 -0.00583200016990304 -0.061608001589775085 -0.029391000047326088
          0.0045449999161064625 -0.06581199914216995 -0.030400000512599945 0.001979999942705035 -0.06904800236225128 -0.03461400046944618
          0.005162999965250492 -0.06010900065302849 -0.029340999200940132 -0.0035800000187009573 -0.06389600038528442 -0.03915899991989136
          -0.0015699999639764428 -0.06889600306749344 -0.03715299814939499 -0.005044999998062849 -0.05845100060105324 -0.03956399857997894
          0.00044999999227002263 -0.06874500215053558 -0.036621998995542526 -0.0025160000659525394 -0.053082000464200974 -0.029293999075889587
          -0.006473000161349773 -0.055810000747442245 -0.030027000233530998 0.0029750000685453415 -0.054575998336076736 -0.030277999117970467
          -0.005504999775439501 -0.05298599973320961 -0.03828800097107887 0.005446000024676323 -0.06631600111722946 -0.03306199982762337
          0.0016509999986737967 -0.06940899789333344 -0.03576499968767166 0.0060259997844696045 -0.060826998203992844 -0.033075001090765
          0.0038189999759197235 -0.05515399947762489 -0.032322000712156296 -0.0002730000123847276 -0.06317199766635895 -0.040970999747514725
          -0.0013289999915286899 -0.06841400265693665 -0.03881699964404106 0.00014800000644754618 -0.05756299942731857 -0.04097000136971474
          -0.0012919999426230788 -0.05215299874544144 -0.03965799883008003 0.002435999922454357 -0.06780099868774414 -0.03966899961233139
          0.0027630000840872526 -0.06671799719333649 -0.04088300094008446 -0.003321999916806817 -0.04762300103902817 -0.02901500090956688
          -0.0067369998432695866 -0.04998299852013588 -0.03007199987769127 0.0006389999762177467 -0.049042001366615295 -0.030333999544382095
          -0.005812999792397022 -0.047572001814842224 -0.03650699928402901 0.00215000007301569 -0.04973499849438667 -0.03168800100684166
          -0.003292999928817153 -0.04692000150680542 -0.03857100009918213 0.006626000162214041 -0.063850998878479 -0.03889999911189079
          0.007459999993443489 -0.05881299823522568 -0.03771600127220154 0.004139000084251165 -0.054166000336408615 -0.03582900017499924
          0.0014090000186115503 -0.04922499880194664 -0.035686999559402466 0.006357999984174967 -0.062380000948905945 -0.042371999472379684
          0.006093000061810017 -0.05688700079917908 -0.04098900035023689 0.0017140000127255917 -0.054308999329805374 -0.03826500102877617
          0.0001900000061141327 -0.04858800023794174 -0.03697500005364418 -0.00355300004594028 -0.04220300167798996 -0.028255999088287354
          -0.007205000147223473 -0.04416000097990036 -0.0300539992749691 -0.00043899999582208693 -0.04332000017166138 -0.029272999614477158
          -0.006440000142902136 -0.042174000293016434 -0.03496599942445755 0.001395000028423965 -0.04400699958205223 -0.031762998551130295
          -0.004995000082999468 -0.04182500019669533 -0.03669700026512146 0.0005670000100508332 -0.04371799901127815 -0.03520600125193596
          -0.000653000024612993 -0.042688999325037 -0.036316998302936554 -0.0032140000257641077 -0.03680400177836418 -0.027434000745415688
          -0.007137000095099211 -0.038387998938560486 -0.029488999396562576 -0.00013299999409355223 -0.037443000823259354 -0.02879299968481064
          -0.006816000211983919 -0.036706000566482544 -0.03365999832749367 0.0011149999918416142 -0.03824400156736374 -0.031272001564502716
          -0.005650999955832958 -0.03652000054717064 -0.03479199856519699 0.0005380000220611691 -0.03799699991941452 -0.0343099981546402
          -0.0012779999524354935 -0.03711000084877014 -0.03566500172019005 -0.002570000011473894 -0.03142499923706055 -0.02662299945950508
          -0.00646300008520484 -0.03268599882721901 -0.028410999104380608 0.0006089999806135893 -0.03166700154542923 -0.02780199982225895
          -0.0067170001566410065 -0.03117999993264675 -0.03247499838471413 0.0011909999884665012 -0.03264100104570389 -0.029823999851942062
          -0.00546600017696619 -0.0309859998524189 -0.03339200094342232 0.000446999998530373 -0.03237299993634224 -0.03303299844264984
          -0.001294999965466559 -0.03142699971795082 -0.03468199819326401 -0.0021069999784231186 -0.026095999404788017 -0.025483999401330948
          -0.005659999791532755 -0.027045000344514847 -0.027225999161601067 0.0008660000166855752 -0.026172999292612076 -0.025676999241113663
          -0.006262999959290028 -0.025683000683784485 -0.0312579981982708 0.0019020000472664833 -0.027134999632835388 -0.028216000646352768
          -0.004896000027656555 -0.025426000356674194 -0.032329000532627106 0.0007340000011026859 -0.026907000690698624 -0.031734999269247055
          -0.0006389999762177467 -0.02572700008749962 -0.03352100029587746 -0.0018119999440386891 -0.02085000090301037 -0.023936999961733818
          -0.004937999881803989 -0.021409999579191208 -0.025933999568223953 0.00043399998685345054 -0.020774999633431435 -0.023437000811100006
          -0.005789999850094318 -0.020221000537276268 -0.029913999140262604 0.0028329999186098576 -0.021517999470233917 -0.027129000052809715
          -0.0042849997989833355 -0.019858000800013542 -0.03133700042963028 0.0018279999494552612 -0.021421000361442566 -0.03068999946117401
          0.000446999998530373 -0.020124999806284904 -0.03209500014781952 -0.0014189999783411622 -0.015720000490546227 -0.0220589991658926
          -0.004782000090926886 -0.015734000131487846 -0.024754000827670097 0.0006259999936446548 -0.014675999991595745 -0.022075999528169632
          -0.005607999861240387 -0.014774000272154808 -0.028439000248908997 0.0039820000529289246 -0.01597600057721138 -0.025980999693274498
          -0.0038560000248253345 -0.014232000336050987 -0.03060699999332428 0.0026700000744313 -0.015807000920176506 -0.029789999127388
          0.0006539999740198255 -0.014343000017106533 -0.031045999377965927 -0.0012619999470189214 -0.010347999632358551 -0.02084299921989441
          -0.005750999785959721 -0.009986000135540962 -0.023754000663757324 0.004381000064313412 -0.011103999800980091 -0.021226000040769577
          -0.005014999769628048 -0.009254000149667263 -0.02732500061392784 0.005545999854803085 -0.010916000232100487 -0.023408999666571617
          -0.003435000078752637 -0.008624999783933163 -0.029952000826597214 0.004178000148385763 -0.010324000380933285 -0.02820100076496601
          0.0008430000161752105 -0.008678000420331955 -0.030727999284863472 0.00024500000290572643 -0.006655000150203705 -0.01971999928355217
          -0.005237000063061714 -0.005623999983072281 -0.021114999428391457 0.005394000094383955 -0.0073899999260902405 -0.020697999745607376
          -0.004954000003635883 -0.003957999870181084 -0.02640100009739399 0.006901999935507774 -0.00622300012037158 -0.02141300030052662
          -0.0032579998951405287 -0.0038189999759197235 -0.029343999922275543 0.0047160000540316105 -0.005822999868541956 -0.028564000502228737
          0.001858999952673912 -0.004629999864846468 -0.0297860000282526 0.0006810000049881637 -0.00583200016990304 -0.024553999304771423
          <InformationKey name="L2_NORM_RANGE" location="vtkDataArray" length="2">
            <Value index="0">
              0.020814115973
            </Value>
            <Value index="1">
              0.078670206952
            </Value>
          </InformationKey>
        </DataArray>
      </Points>
      <Verts>
        <DataArray type="Int64" Name="connectivity" format="ascii" RangeMin="1e+299" RangeMax="-1e+299">
        </DataArray>
        <DataArray type="Int64" Name="offsets" format="ascii" RangeMin="1e+299" RangeMax="-1e+299">
        </DataArray>
      </Verts>
      <Lines>
        <DataArray type="Int64" Name="connectivity" format="ascii" RangeMin="1e+299" RangeMax="-1e+299">
        </DataArray>
        <DataArray type="Int64" Name="offsets" format="ascii" RangeMin="1e+299" RangeMax="-1e+299">
        </DataArray>
      </Lines>
      <Strips>
        <DataArray type="Int64" Name="connectivity" format="ascii" RangeMin="1e+299" RangeMax="-1e+299">
        </DataArray>
        <DataArray type="Int64" Name="offsets" format="ascii" RangeMin="1e+299" RangeMax="-1e+299">
        </DataArray>
      </Strips>
      <Polys>
        <DataArray type="Int32" Name="connectivity" format="ascii" RangeMin="0" RangeMax="105">
          0 1 2 3 4 5
          1 0 6 0 3 7
          8 4 0 6 1 9
          10 2 5 11 9 1
          2 10 12 3 2 12
          7 3 12 13 14 5
          4 15 13 4 8 14
          16 11 5 17 6 7
          18 19 8 6 17 18
          7 12 20 15 8 19
          9 21 22 10 11 23
          21 9 10 22 12 16
          24 23 11 25 18 12
          26 25 12 22 26 12
          27 28 14 13 29 27
          13 15 28 30 16 14
          31 29 15 20 30 32
          24 16 33 17 25 34
          19 17 33 18 25 17
          35 20 19 34 36 31
          20 35 21 37 26 22
          23 38 37 21 24 39
          38 23 32 40 39 24
          37 33 25 26 41 42
          28 27 43 41 27 29
          42 44 30 28 45 43
          29 31 44 46 32 30
          47 45 31 36 46 48
          40 32 38 34 33 37
          39 35 34 38 40 36
          35 39 48 47 36 40
          49 50 42 41 51 49
          41 43 50 52 44 42
          53 51 43 45 52 54
          46 44 55 53 45 47
          54 56 48 46 56 55
          47 48 57 58 50 49
          59 57 49 51 58 60
          52 50 61 59 51 53
          60 62 54 52 63 61
          53 55 62 64 56 54
          64 63 55 56 65 66
          58 57 67 65 57 59
          66 68 60 58 69 67
          59 61 68 70 62 60
          71 69 61 63 70 72
          64 62 72 71 63 64
          73 74 66 65 75 73
          65 67 74 76 68 66
          77 75 67 69 76 78
          70 68 79 77 69 71
          78 80 72 70 80 79
          71 72 81 82 74 73
          83 81 73 75 82 84
          76 74 85 83 75 77
          84 86 78 76 87 85
          77 79 86 88 80 78
          88 87 79 80 89 90
          82 81 91 89 81 83
          90 92 84 82 93 91
          83 85 92 94 86 84
          95 93 85 87 94 96
          88 86 96 95 87 88
          97 98 90 89 99 97
          89 91 98 100 92 90
          101 99 91 93 100 102
          94 92 103 101 93 95
          102 104 96 94 104 103
          95 96 105 98 97 105
          97 99 105 100 98 105
          99 101 105 102 100 105
          101 103 105 104 102 105
          103 104
        </DataArray>
        <DataArray type="Int32" Name="offsets" format="ascii" RangeMin="4" RangeMax="434">
          4 8 12 16 20 24
          27 30 33 37 41 45
          49 53 56 60 64 68
          71 75 78 81 84 88
          92 96 100 104 107 111
          114 118 122 126 130 134
          138 142 146 150 154 158
          162 166 170 174 178 182
          186 190 194 198 202 206
          210 214 218 222 226 230
          234 238 242 246 250 254
          258 262 266 270 274 278
          282 286 290 294 298 302
          306 310 314 318 322 326
          330 334 338 342 346 350
          354 358 362 366 370 374
          378 382 386 390 394 398
          402 406 410 413 416 419
          422 425 428 431 434
        </DataArray>
      </Polys>
    </Piece>
  </PolyData>
</VTKFile>
