<?xml version="1.0"?>
<VTKFile type="PolyData" version="0.1" byte_order="LittleEndian" header_type="UInt32" compressor="vtkZLibDataCompressor">
  <PolyData>
    <Piece NumberOfPoints="106" NumberOfVerts="0" NumberOfLines="0" NumberOfStrips="0" NumberOfPolys="113">
      <PointData Normals="Normals">
        <DataArray type="Float32" Name="Normals" NumberOfComponents="3" format="ascii" RangeMin="0.9999994536093769" RangeMax="1.0000005950753372">
          0.09231100231409073 -0.1317020058631897 0.986981987953186 -0.4941219985485077 -0.5751510262489319 0.6519550085067749
          0.16647599637508392 -0.9293310046195984 0.3295910060405731 0.2547470033168793 -0.5923230051994324 0.7643679976463318
          0.031088000163435936 0.04921000078320503 0.9983050227165222 -0.745527982711792 -0.09458599984645844 0.65972900390625
          0.37397000193595886 -0.2990860044956207 0.877892017364502 -0.12349600344896317 -0.7443709969520569 0.6562479734420776
          0.611066997051239 0.12666000425815582 0.7813799977302551 -0.6798610091209412 -0.4048979878425598 -0.6114299893379211
          -0.2645910084247589 -0.8736510276794434 -0.40832000970840454 -0.7562249898910522 -0.1710509955883026 -0.6315569877624512
          -0.05518500134348869 -0.9984059929847717 -0.011857000179588795 -0.012715999968349934 0.19481100142002106 0.980758011341095
          -0.8357560038566589 0.10873900353908539 0.5382260084152222 0.5816329717636108 0.3280799984931946 0.7443559765815735
          -0.8268300294876099 -0.10596299916505814 -0.5523800253868103 0.8323820233345032 -0.5114759802818298 0.21338100731372833
          0.10888300091028214 -0.9656710028648376 0.23584699630737305 0.9624500274658203 0.16693300008773804 0.21406500041484833
          0.9043359756469727 0.39023900032043457 0.17288699746131897 -0.23041799664497375 -0.23254899680614471 -0.9448959827423096
          -0.07078800350427628 -0.8170279860496521 -0.5722360014915466 -0.02528199926018715 0.22533699870109558 -0.9739530086517334
          0.04235700145363808 0.27044400572776794 -0.9618030190467834 0.29754701256752014 -0.9236950278282166 -0.24135799705982208
          0.011978999711573124 -0.8293669819831848 -0.5585759878158569 -0.035457998514175415 0.14587900042533875 0.9886670112609863
          -0.8675469756126404 0.05773499980568886 0.49399301409721375 0.5573840141296387 0.2158930003643036 0.8016939759254456
          -0.8861650228500366 -0.13061000406742096 -0.4445819854736328 0.9469929933547974 0.2569420039653778 0.19283300638198853
          -0.22887000441551208 -0.08025500178337097 -0.9701430201530457 0.8916860222816467 -0.44251498579978943 -0.09527300298213959
          0.9601340293884277 0.195701003074646 -0.19961200654506683 0.8474779725074768 0.39291301369667053 -0.35693201422691345
          0.8807290196418762 0.18799999356269836 -0.43470901250839233 0.44655299186706543 -0.3713330030441284 -0.8140649795532227
          0.6223459839820862 0.3969539999961853 -0.6746199727058411 0.6414430141448975 0.49508199095726013 -0.5860419869422913
          0.5624819993972778 0.12418899685144424 -0.8174300193786621 -0.0603410005569458 0.08086899667978287 0.9948970079421997
          -0.8783940076828003 0.020150000229477882 0.47751298546791077 0.6202710270881653 0.06295599788427353 0.7818570137023926
          -0.9057580232620239 -0.07160300016403198 -0.4177030026912689 0.9835839867591858 0.07266300171613693 0.16517199575901031
          -0.4201259911060333 -0.07375500351190567 -0.9044640064239502 0.8694869875907898 0.033100999891757965 -0.49284499883651733
          0.35477200150489807 -0.0377269983291626 -0.9341909885406494 -0.031199000775814056 0.040686000138521194 0.9986850023269653
          -0.841962993144989 0.026954999193549156 0.5388609766960144 0.6751239895820618 -0.023809000849723816 0.7373200058937073
          -0.9064459800720215 0.01266700029373169 -0.4221319854259491 0.9930580258369446 -0.01927199959754944 0.11603900045156479
          -0.4540160000324249 -0.005274000111967325 -0.8909779787063599 0.8694120049476624 0.010123999789357185 -0.49398401379585266
          0.25470200181007385 -0.029441000893712044 -0.9665709733963013 -0.10505200177431107 0.017110999673604965 0.9943199753761292
          -0.8028330206871033 0.05249999836087227 0.593887984752655 0.6146519780158997 -0.07216499745845795 0.7854909896850586
          -0.9188600182533264 0.06242600083351135 -0.389614999294281 0.9927999973297119 -0.08535899966955185 0.0840350016951561
          -0.44665199518203735 0.036931999027729034 -0.8939449787139893 0.8876100182533264 -0.018324999138712883 -0.4602319896221161
          0.3037019968032837 0.010331000201404095 -0.9527109861373901 -0.2745859920978546 -0.007832000032067299 0.9615309834480286
          -0.8035169839859009 0.06234699860215187 0.5920079946517944 0.45264700055122375 -0.08472199738025665 0.8876559734344482
          -0.9427890181541443 0.07850100100040436 -0.3240149915218353 0.9798700213432312 -0.1165350005030632 0.16209499537944794
          -0.4621480107307434 0.051302000880241394 -0.8853179812431335 0.8832269906997681 -0.12100499868392944 -0.45306500792503357
          0.29942700266838074 -0.043136999011039734 -0.9531440138816833 -0.37715399265289307 -0.04916299879550934 0.9248449802398682
          -0.8311290144920349 0.034442998468875885 0.5550119876861572 0.3630309998989105 -0.12395299971103668 0.9234960079193115
          -0.965707004070282 0.0488010011613369 -0.2550089955329895 0.9541990160942078 -0.14840500056743622 0.2597689926624298
          -0.5341740250587463 -0.0030879999976605177 -0.8453689813613892 0.8216130137443542 -0.19860799610614777 -0.5343289971351624
          0.11678999662399292 -0.12497200071811676 -0.9852629899978638 -0.4087570011615753 -0.0035250000655651093 0.9126359820365906
          -0.8414120078086853 0.0029619999695569277 0.5403860211372375 0.283610999584198 -0.2654710114002228 0.9214609861373901
          -0.9776949882507324 -0.026409000158309937 -0.20836099982261658 0.885798990726471 -0.3906640112400055 0.2504819929599762
          -0.5521450042724609 -0.0655440017580986 -0.831167995929718 0.7590450048446655 -0.24498499929904938 -0.6031860113143921
          0.06616999953985214 -0.0929730013012886 -0.9934669733047485 -0.4199180006980896 0.1100739985704422 0.9008619785308838
          -0.8031439781188965 0.07197099924087524 0.5914220213890076 0.3325349986553192 -0.29373699426651 0.8961799740791321
          -0.9938610196113586 0.0097850002348423 -0.11019899696111679 0.9109820127487183 -0.40775299072265625 0.06204599887132645
          -0.5869579911231995 0.0035459999926388264 -0.8096100091934204 0.7464619874954224 -0.20675300061702728 -0.6324930191040039
          0.09203600138425827 -0.03253699839115143 -0.9952239990234375 -0.35218000411987305 0.4706929922103882 0.8089609742164612
          -0.5928099751472473 0.537276029586792 0.5999249815940857 0.32812100648880005 0.6293690204620361 0.7044370174407959
          -0.7762629985809326 0.6259220242500305 0.07507800310850143 0.8921160101890564 0.4434170126914978 -0.08666499704122543
          -0.4078119993209839 0.6787149906158447 -0.6107659935951233 0.6118839979171753 0.5254600048065186 -0.5911769866943359
          0.10640200227499008 0.5141159892082214 -0.8510950207710266 0.0012529999949038029 0.9969639778137207 0.07785800099372864
          <InformationKey name="L2_NORM_RANGE" location="vtkDataArray" length="2">
            <Value index="0">
              0.99999945361
            </Value>
            <Value index="1">
              1.0000005951
            </Value>
          </InformationKey>
        </DataArray>
      </PointData>
      <CellData>
      </CellData>
      <Points>
        <DataArray type="Float32" Name="Points" NumberOfComponents="3" format="ascii" RangeMin="0.006705506375602724" RangeMax="0.08537089612192555">
          -0.002713999943807721 -0.07701600342988968 -0.0016629999736323953 -0.007757000159472227 -0.08082100003957748 -0.0009309999877586961
          -0.0024500000290572643 -0.0852229967713356 -0.004385000094771385 -0.0028639999218285084 -0.08369000256061554 -0.001791000016964972
          -0.0026400000788271427 -0.07039099931716919 -0.0011370000429451466 -0.007621999830007553 -0.07405299693346024 -0.000035000000934815034
          0.005042000208050013 -0.07932300120592117 -0.00027099999715574086 0.0019120000069960952 -0.08417599648237228 -0.00457199988886714
          0.005795999895781279 -0.07224400341510773 -0.0003220000071451068 -0.004873000085353851 -0.07905499637126923 -0.011211000382900238
          -0.002420000033453107 -0.08458200097084045 -0.0076489998027682304 -0.006661999970674515 -0.07262399792671204 -0.01295700017362833
          0.00004600000102072954 -0.08427800238132477 -0.007046999875456095 -0.003575999988242984 -0.06381399929523468 -0.001892999978736043
          -0.008403999730944633 -0.06725200265645981 -0.0021389999892562628 0.003126000054180622 -0.06583099812269211 -0.0027260000351816416
          -0.007222999818623066 -0.06578099727630615 -0.012691999785602093 0.006142000202089548 -0.08054299652576447 -0.003344000084325671
          0.0015109999803826213 -0.08487600088119507 -0.005867000203579664 0.006849000230431557 -0.07396899908781052 -0.004631000105291605
          0.004155999980866909 -0.0669960007071495 -0.0050409999676048756 -0.0008370000286959112 -0.0786070004105568 -0.013549000024795532
          -0.002125999890267849 -0.08438999950885773 -0.009754999540746212 -0.0003239999932702631 -0.07188499718904495 -0.014845999889075756
          -0.002082000020891428 -0.06509999930858612 -0.014526999555528164 0.0024689999409019947 -0.08385200053453445 -0.010917999781668186
          0.002867999952286482 -0.08283600211143494 -0.012622999958693981 -0.00455900002270937 -0.05720800161361694 -0.0028230000752955675
          -0.008727000094950199 -0.06027999892830849 -0.0035429999697953463 0.0002749999985098839 -0.059213001281023026 -0.004075000062584877
          -0.007598999887704849 -0.0588809996843338 -0.01181199960410595 0.0021180000621825457 -0.06035599857568741 -0.005535999778658152
          -0.004523999989032745 -0.0585779994726181 -0.014436000026762486 0.007583000231534243 -0.07894100248813629 -0.010910999961197376
          0.00860000029206276 -0.07262899726629257 -0.01065799966454506 0.004546999931335449 -0.06662499904632568 -0.009472999721765518
          0.001214000047184527 -0.06067100167274475 -0.010447000153362751 0.0072559998370707035 -0.07798200100660324 -0.015412000007927418
          0.006930999923497438 -0.07107900083065033 -0.015026000328361988 0.0015869999770075083 -0.06736099720001221 -0.01235899981111288
          -0.0002730000123847276 -0.06020599976181984 -0.012137999758124352 -0.0048420000821352005 -0.050537001341581345 -0.0031679999083280563
          -0.009298999793827534 -0.05329800024628639 -0.004869000054895878 -0.0010420000180602074 -0.05211099982261658 -0.004127999767661095
          -0.008365999907255173 -0.052055999636650085 -0.011215000413358212 0.0011970000341534615 -0.05350999906659126 -0.006953000091016293
          -0.0066019999794662 -0.05203799903392792 -0.013371000066399574 0.00018600000475998968 -0.053961001336574554 -0.011145000346004963
          -0.001303000026382506 -0.05298500135540962 -0.012714000418782234 -0.004428999964147806 -0.043877001851797104 -0.00343300006352365
          -0.009216999635100365 -0.046250998973846436 -0.005528999958187342 -0.0006689999718219042 -0.0449570007622242 -0.004914000164717436
          -0.008825000375509262 -0.045200999826192856 -0.010916000232100487 0.0008549999911338091 -0.046491000801324844 -0.007699000183492899
          -0.007404000032693148 -0.045239999890327454 -0.01231599971652031 0.0001500000071246177 -0.046897999942302704 -0.011396000161767006
          -0.002065999899059534 -0.046149998903274536 -0.013225000351667404 -0.0036430000327527523 -0.03724399954080582 -0.0037060000468045473
          -0.008394000120460987 -0.03916899859905243 -0.005557000171393156 0.00023600000713486224 -0.03780600056052208 -0.00506300013512373
          -0.008705000393092632 -0.03830600157380104 -0.01077600009739399 0.0009469999931752682 -0.039441000670194626 -0.007259999867528677
          -0.007178999949246645 -0.0382860004901886 -0.011919000186026096 0.000037999998312443495 -0.03986399993300438 -0.011168000288307667
          -0.002087000058963895 -0.039110999554395676 -0.013363000005483627 -0.0030789999291300774 -0.030594000592827797 -0.003575999988242984
          -0.007414999883621931 -0.032134998589754105 -0.005442999769002199 0.0005489999894052744 -0.030731000006198883 -0.003788999980315566
          -0.008151000365614891 -0.03143699839711189 -0.010588999837636948 0.0018139999592676759 -0.03247100114822388 -0.00660899979993701
          -0.00648299977183342 -0.031376998871564865 -0.011932999826967716 0.000387999985832721 -0.033013999462127686 -0.010877000167965889
          -0.0012870000209659338 -0.03201200067996979 -0.01329100038856268 -0.0027199999894946814 -0.0239499993622303 -0.002937000012025237
          -0.006535000167787075 -0.0250840000808239 -0.005198999773710966 0.00002099999983329326 -0.02374500036239624 -0.002355000004172325
          -0.007573999930173159 -0.024581000208854675 -0.010243999771773815 0.0029490001033991575 -0.025489000603556633 -0.006606999784708023
          -0.0057379999198019505 -0.024474000558257103 -0.012032999657094479 0.002128999913111329 -0.026294000446796417 -0.011149000376462936
          0.0001250000059371814 -0.025015000253915787 -0.013358999975025654 -0.0022410000674426556 -0.017369000241160393 -0.0018739999504759908
          -0.00634399987757206 -0.018008999526500702 -0.005100000184029341 0.0005029999883845448 -0.016378000378608704 -0.0013599999947473407
          -0.0073529998771846294 -0.017712000757455826 -0.009736999869346619 0.004352000076323748 -0.018581999465823174 -0.006513999775052071
          -0.00521499989554286 -0.01756500080227852 -0.012461000122129917 0.003602999961003661 -0.01954999938607216 -0.011746999807655811
          -0.0015539999585598707 -0.017921000719070435 -0.013753999955952168 -0.0020639998838305473 -0.010646999813616276 -0.0026179999113082886
          -0.006936000194400549 -0.01093399990350008 -0.0056039998307824135 0.005745000205934048 -0.01089600007981062 0.00008600000001024455
          -0.007571999914944172 -0.01082799956202507 -0.009933000430464745 0.00724499998614192 -0.012404999695718288 -0.004544000141322613
          -0.005311000160872936 -0.010727000422775745 -0.013736000284552574 0.006818000227212906 -0.012955999933183193 -0.010975999757647514
          -0.0013800000306218863 -0.010958000086247921 -0.013919999822974205 -0.0012410000199452043 -0.005737000145018101 -0.0032420000061392784
          -0.005371999926865101 -0.005266000051051378 -0.005607999861240387 0.00774399982765317 -0.005828999914228916 0.00011700000322889537
          -0.006556000094860792 -0.004279000218957663 -0.00979899987578392 0.007914000190794468 -0.00583800021559 -0.00329799996688962
          -0.005659000016748905 -0.0041160001419484615 -0.0122079998254776 0.005956999957561493 -0.006144000217318535 -0.01243599969893694
          0.0009599999757483602 -0.006448000203818083 -0.013911000452935696 0.0004459999909158796 -0.0024759999942034483 -0.0063599999994039536
          <InformationKey name="L2_NORM_RANGE" location="vtkDataArray" length="2">
            <Value index="0">
              0.0067055063756
            </Value>
            <Value index="1">
              0.085370896122
            </Value>
          </InformationKey>
        </DataArray>
      </Points>
      <Verts>
        <DataArray type="Int64" Name="connectivity" format="ascii" RangeMin="1e+299" RangeMax="-1e+299">
        </DataArray>
        <DataArray type="Int64" Name="offsets" format="ascii" RangeMin="1e+299" RangeMax="-1e+299">
        </DataArray>
      </Verts>
      <Lines>
        <DataArray type="Int64" Name="connectivity" format="ascii" RangeMin="1e+299" RangeMax="-1e+299">
        </DataArray>
        <DataArray type="Int64" Name="offsets" format="ascii" RangeMin="1e+299" RangeMax="-1e+299">
        </DataArray>
      </Lines>
      <Strips>
        <DataArray type="Int64" Name="connectivity" format="ascii" RangeMin="1e+299" RangeMax="-1e+299">
        </DataArray>
        <DataArray type="Int64" Name="offsets" format="ascii" RangeMin="1e+299" RangeMax="-1e+299">
        </DataArray>
      </Strips>
      <Polys>
        <DataArray type="Int32" Name="connectivity" format="ascii" RangeMin="0" RangeMax="105">
          0 1 2 3 4 5
          1 0 6 0 3 7
          8 4 0 6 1 9
          10 2 5 11 9 1
          2 10 12 3 2 12
          7 3 12 13 14 5
          4 15 13 4 8 14
          16 11 5 17 6 7
          18 19 8 6 17 18
          7 12 20 15 8 19
          9 21 22 10 11 23
          21 9 10 22 12 16
          24 23 11 25 18 12
          26 25 12 22 26 12
          27 28 14 13 29 27
          13 15 28 30 16 14
          31 29 15 20 30 32
          24 16 33 17 25 34
          19 17 33 18 25 17
          35 20 19 34 36 31
          20 35 21 37 26 22
          23 38 37 21 24 39
          38 23 32 40 39 24
          37 33 25 26 41 42
          28 27 43 41 27 29
          42 44 30 28 45 43
          29 31 44 46 32 30
          47 45 31 36 46 48
          40 32 38 34 33 37
          39 35 34 38 40 36
          35 39 48 47 36 40
          49 50 42 41 51 49
          41 43 50 52 44 42
          53 51 43 45 52 54
          46 44 55 53 45 47
          54 56 48 46 56 55
          47 48 57 58 50 49
          59 57 49 51 58 60
          52 50 61 59 51 53
          60 62 54 52 63 61
          53 55 62 64 56 54
          64 63 55 56 65 66
          58 57 67 65 57 59
          66 68 60 58 69 67
          59 61 68 70 62 60
          71 69 61 63 70 72
          64 62 72 71 63 64
          73 74 66 65 75 73
          65 67 74 76 68 66
          77 75 67 69 76 78
          70 68 79 77 69 71
          78 80 72 70 80 79
          71 72 81 82 74 73
          83 81 73 75 82 84
          76 74 85 83 75 77
          84 86 78 76 87 85
          77 79 86 88 80 78
          88 87 79 80 89 90
          82 81 91 89 81 83
          90 92 84 82 93 91
          83 85 92 94 86 84
          95 93 85 87 94 96
          88 86 96 95 87 88
          97 98 90 89 99 97
          89 91 98 100 92 90
          101 99 91 93 100 102
          94 92 103 101 93 95
          102 104 96 94 104 103
          95 96 105 98 97 105
          97 99 105 100 98 105
          99 101 105 102 100 105
          101 103 105 104 102 105
          103 104
        </DataArray>
        <DataArray type="Int32" Name="offsets" format="ascii" RangeMin="4" RangeMax="434">
          4 8 12 16 20 24
          27 30 33 37 41 45
          49 53 56 60 64 68
          71 75 78 81 84 88
          92 96 100 104 107 111
          114 118 122 126 130 134
          138 142 146 150 154 158
          162 166 170 174 178 182
          186 190 194 198 202 206
          210 214 218 222 226 230
          234 238 242 246 250 254
          258 262 266 270 274 278
          282 286 290 294 298 302
          306 310 314 318 322 326
          330 334 338 342 346 350
          354 358 362 366 370 374
          378 382 386 390 394 398
          402 406 410 413 416 419
          422 425 428 431 434
        </DataArray>
      </Polys>
    </Piece>
  </PolyData>
</VTKFile>
