<?xml version="1.0"?>
<VTKFile type="PolyData" version="0.1" byte_order="LittleEndian" header_type="UInt32" compressor="vtkZLibDataCompressor">
  <PolyData>
    <Piece NumberOfPoints="49" NumberOfVerts="0" NumberOfLines="0" NumberOfStrips="0" NumberOfPolys="55">
      <PointData Normals="Normals">
        <DataArray type="Float32" Name="Normals" NumberOfComponents="3" format="ascii" RangeMin="0.9999994433065384" RangeMax="1.0000005095936497">
          -0.4888420104980469 0.25033900141716003 0.8356810212135315 -0.8834249973297119 -0.2827270030975342 0.373663991689682
          -0.8012650012969971 -0.29271799325942993 0.5218150019645691 -0.4663810133934021 0.2584809958934784 0.8459759950637817
          -0.387704998254776 0.2931540012359619 0.873924970626831 -0.4094640016555786 0.3203189969062805 0.8542450070381165
          -0.3334290087223053 0.9289659857749939 0.1607699990272522 -0.5698869824409485 0.8059110045433044 0.16042399406433105
          -0.8229389786720276 0.4944089949131012 -0.27987799048423767 -0.526390016078949 -0.6208999752998352 -0.5808590054512024
          -0.5250279903411865 -0.6925870180130005 -0.4946399927139282 -0.6402689814567566 0.21260499954223633 -0.7381420135498047
          -0.850417971611023 -0.015107999555766582 0.5258910059928894 -0.28509101271629333 0.3283019959926605 0.900521993637085
          -0.7096480131149292 -0.498881995677948 -0.49751099944114685 0.4947870075702667 0.20625099539756775 0.8441839814186096
          0.3608349859714508 0.2687450051307678 0.8930699825286865 0.5482630133628845 0.33866700530052185 0.7646650075912476
          0.2979300022125244 0.9535539746284485 0.044419001787900925 0.00928299967199564 0.8024320006370544 -0.596671998500824
          -0.2968040108680725 0.7491179704666138 -0.5922240018844604 0.0343330018222332 -0.5204619765281677 -0.853193998336792
          0.1024560034275055 -0.5903630256652832 -0.8006089925765991 -0.22088700532913208 0.26853200793266296 -0.9376029968261719
          0.010088999755680561 -0.49220898747444153 -0.8704190254211426 -0.8388270139694214 -0.09775499999523163 0.5355499982833862
          -0.1883230060338974 0.3224950134754181 0.9276480078697205 -0.7433189749717712 -0.4645560085773468 -0.4813149869441986
          0.6973029971122742 0.4379720091819763 0.5674059987068176 -0.025857999920845032 -0.4509040117263794 -0.8921980261802673
          0.9909909963607788 -0.11640699952840805 -0.06622199714183807 0.9848740100860596 -0.16282500326633453 0.05926400050520897
          0.9827219843864441 0.04357000067830086 -0.17988699674606323 0.7795349955558777 0.5452970266342163 -0.3081809878349304
          0.9092959761619568 -0.01802000030875206 -0.41575899720191956 0.4115869998931885 0.3746039867401123 -0.8308240175247192
          0.6588129997253418 -0.41667699813842773 -0.6263750195503235 0.6819829940795898 -0.3676539957523346 -0.6322410106658936
          0.6310210227966309 -0.2852399945259094 -0.721422016620636 0.4689149856567383 -0.3526119887828827 -0.8098049759864807
          -0.7830880284309387 -0.43187400698661804 0.447501003742218 -0.17865200340747833 0.11566799879074097 0.9770900011062622
          -0.21116100251674652 -0.5680429935455322 -0.7954490184783936 0.725380003452301 0.2204589992761612 0.6520900130271912
          0.8260440230369568 -0.28631898760795593 -0.4854609966278076 0.36880001425743103 -0.4032759964466095 -0.8374689817428589
          -0.4034860134124756 -0.8376550078392029 0.3681490123271942 0.24540700018405914 -0.6088079810142517 -0.7544059753417969
          0.5394819974899292 -0.6375179886817932 0.5500270128250122
          <InformationKey name="L2_NORM_RANGE" location="vtkDataArray" length="2">
            <Value index="0">
              0.99999944331
            </Value>
            <Value index="1">
              1.0000005096
            </Value>
          </InformationKey>
        </DataArray>
      </PointData>
      <CellData>
      </CellData>
      <Points>
        <DataArray type="Float32" Name="Points" NumberOfComponents="3" format="ascii" RangeMin="0.09076653460901365" RangeMax="0.11871464663482999">
          0.00624299980700016 -0.0749569982290268 0.05978799983859062 0.0033950000070035458 -0.07761400192975998 0.05861499905586243
          0.005987000185996294 -0.07979200035333633 0.060412000864744186 0.008051999844610691 -0.07836399972438812 0.060575999319553375
          0.010878000408411026 -0.07732100039720535 0.06211400032043457 0.011278999969363213 -0.07260400056838989 0.06124399974942207
          0.01064900029450655 -0.06846100091934204 0.058765001595020294 0.004987000022083521 -0.07134400308132172 0.05788499861955643
          0.0026809999253600836 -0.0734340026974678 0.05677799880504608 0.0049299998208880424 -0.07776299864053726 0.05541900172829628
          0.00612299982458353 -0.0792279988527298 0.05720200017094612 0.0037640000227838755 -0.07444799691438675 0.05481399968266487
          0.008182999677956104 -0.08432099968194962 0.06271900236606598 0.01014699973165989 -0.08305100351572037 0.0644029974937439
          0.008797000162303448 -0.0854950025677681 0.06061499938368797 0.013983000069856644 -0.07650300115346909 0.06317900121212006
          0.014340000227093697 -0.07265300303697586 0.06269299983978271 0.014015000313520432 -0.08231499791145325 0.06443600356578827
          0.013640999794006348 -0.0681380033493042 0.059484001249074936 0.011443999595940113 -0.07082799822092056 0.055668000131845474
          0.0068870000541210175 -0.07242400199174881 0.05516599863767624 0.009696000255644321 -0.07644400000572205 0.053068000823259354
          0.009638000279664993 -0.07846400141716003 0.05512399971485138 0.00861900020390749 -0.07377800345420837 0.052163999527692795
          0.011269999668002129 -0.08526899665594101 0.059310998767614365 0.009305999614298344 -0.08790300041437149 0.06469099968671799
          0.011385000310838223 -0.0875919982790947 0.06539300084114075 0.009735999628901482 -0.0894479975104332 0.0626550018787384
          0.015908999368548393 -0.08709099888801575 0.06592400372028351 0.012076999992132187 -0.09022200107574463 0.062134999781847
          0.015077999792993069 -0.07714000344276428 0.05995599925518036 0.015269000083208084 -0.07402899861335754 0.05897900089621544
          0.01463400013744831 -0.08310999721288681 0.06176700070500374 0.015525000169873238 -0.07041999697685242 0.05722799897193909
          0.015728000551462173 -0.08791700005531311 0.06355900317430496 0.013635000213980675 -0.07270999997854233 0.05286800116300583
          0.012660999782383442 -0.07551299780607224 0.0543689988553524 0.01282699964940548 -0.07788799703121185 0.056338001042604446
          0.013539000414311886 -0.08459100127220154 0.05993599817156792 0.014417000114917755 -0.08941300213336945 0.06236699968576431
          0.010293000377714634 -0.09453800320625305 0.0653970018029213 0.013276999816298485 -0.09040100127458572 0.06707900017499924
          0.011951000429689884 -0.09395600110292435 0.06383199989795685 0.01649099960923195 -0.09177999943494797 0.06697200238704681
          0.016959000378847122 -0.09321200102567673 0.06566300243139267 0.014948000200092793 -0.09338200092315674 0.06456200033426285
          0.012559999711811543 -0.09620600193738937 0.06638900190591812 0.014806999824941158 -0.09600000083446503 0.06572099775075912
          0.016049999743700027 -0.09660200029611588 0.06710900366306305
          <InformationKey name="L2_NORM_RANGE" location="vtkDataArray" length="2">
            <Value index="0">
              0.090766534609
            </Value>
            <Value index="1">
              0.11871464663
            </Value>
          </InformationKey>
        </DataArray>
      </Points>
      <Verts>
        <DataArray type="Int64" Name="connectivity" format="ascii" RangeMin="1e+299" RangeMax="-1e+299">
        </DataArray>
        <DataArray type="Int64" Name="offsets" format="ascii" RangeMin="1e+299" RangeMax="-1e+299">
        </DataArray>
      </Verts>
      <Lines>
        <DataArray type="Int64" Name="connectivity" format="ascii" RangeMin="1e+299" RangeMax="-1e+299">
        </DataArray>
        <DataArray type="Int64" Name="offsets" format="ascii" RangeMin="1e+299" RangeMax="-1e+299">
        </DataArray>
      </Lines>
      <Strips>
        <DataArray type="Int64" Name="connectivity" format="ascii" RangeMin="1e+299" RangeMax="-1e+299">
        </DataArray>
        <DataArray type="Int64" Name="offsets" format="ascii" RangeMin="1e+299" RangeMax="-1e+299">
        </DataArray>
      </Strips>
      <Polys>
        <DataArray type="Int32" Name="connectivity" format="ascii" RangeMin="0" RangeMax="48">
          0 1 2 3 3 4
          5 0 5 6 7 0
          0 7 8 1 2 1
          9 10 9 1 8 11
          3 2 12 13 2 10
          14 12 3 13 4 5
          4 15 16 4 13 17
          15 6 5 16 18 19
          6 18 6 19 20 7
          7 20 8 8 20 11
          9 21 22 10 11 23
          21 9 10 22 24 14
          11 20 23 12 25 26
          13 12 14 27 25 13
          26 28 17 14 24 29
          27 16 15 30 31 30
          15 17 32 31 33 18
          16 32 17 28 34 19
          18 33 33 35 19 19
          35 23 20 21 36 37
          22 21 23 35 36 22
          37 38 24 24 38 39
          29 25 40 41 26 25
          27 42 40 26 41 43
          28 27 29 42 34 28
          43 44 29 39 45 42
          32 38 37 30 30 37
          36 31 36 35 33 31
          34 39 38 32 44 45
          39 34 40 46 41 47
          46 40 42 48 43 41
          41 46 48 42 45 47
          48 44 43 47 45 44
          48 47 44 48 46 47
        </DataArray>
        <DataArray type="Int32" Name="offsets" format="ascii" RangeMin="4" RangeMax="204">
          4 8 12 16 20 24
          28 32 35 39 43 47
          50 54 57 60 64 68
          72 75 79 83 87 91
          95 99 103 107 110 113
          117 121 125 129 133 137
          141 145 148 152 156 160
          164 168 172 176 179 183
          186 189 192 195 198 201
          204
        </DataArray>
      </Polys>
    </Piece>
  </PolyData>
</VTKFile>
