<?xml version="1.0"?>
<VTKFile type="PolyData" version="0.1" byte_order="LittleEndian" header_type="UInt32" compressor="vtkZLibDataCompressor">
  <PolyData>
    <Piece NumberOfPoints="27" NumberOfVerts="0" NumberOfLines="0" NumberOfStrips="0" NumberOfPolys="26">
      <PointData Normals="Normals">
        <DataArray type="Float32" Name="Normals" NumberOfComponents="3" format="ascii" RangeMin="0.9999994948340065" RangeMax="1.0000005777673846">
          -0.31769201159477234 0.3398669958114624 0.8851900100708008 0.8731380105018616 0.45082300901412964 0.1854410022497177
          -0.15958699584007263 0.7273560166358948 -0.6674469709396362 -0.9396640062332153 0.3420889973640442 0.002472999971359968
          0.022252000868320465 -0.3909960091114044 0.9201229810714722 0.9810839891433716 -0.18653300404548645 0.05177000164985657
          -0.9730299711227417 -0.16463500261306763 -0.16157999634742737 0.23405000567436218 -0.14080999791622162 -0.961974024772644
          -0.03168899938464165 -0.29172900319099426 0.9559760093688965 0.9790210127830505 -0.2009669989347458 0.03361799940466881
          -0.9710180163383484 -0.1338289976119995 -0.19802600145339966 0.1961890012025833 -0.1916940063238144 -0.9616460204124451
          -0.11590699851512909 0.06675100326538086 0.9910150170326233 0.9995999932289124 0.02643899992108345 0.010023999959230423
          -0.9822070002555847 -0.053394000977277756 -0.1800529956817627 0.12486200034618378 -0.08373299986124039 -0.9886350035667419
          -0.00648899981752038 0.204816997051239 0.9787790179252625 0.9731829762458801 0.22771500051021576 -0.03255400061607361
          -0.9785749912261963 -0.1845259964466095 -0.09133200347423553 0.12971900403499603 -0.09980499744415283 -0.9865149855613708
          0.1782429963350296 0.11446300148963928 0.9773060083389282 0.9931240081787109 0.11429599672555923 -0.025314999744296074
          -0.8800709843635559 -0.4549170136451721 0.1361059993505478 0.25693199038505554 -0.5380359888076782 -0.8028090000152588
          0.6296529769897461 -0.26189300417900085 0.7314029932022095 0.8351240158081055 -0.5500209927558899 -0.00672700023278594
          -0.26517000794410706 -0.8860629796981812 0.3802340030670166
          <InformationKey name="L2_NORM_RANGE" location="vtkDataArray" length="2">
            <Value index="0">
              0.99999949483
            </Value>
            <Value index="1">
              1.0000005778
            </Value>
          </InformationKey>
        </DataArray>
      </PointData>
      <CellData>
      </CellData>
      <Points>
        <DataArray type="Float32" Name="Points" NumberOfComponents="3" format="ascii" RangeMin="0.16808571895023006" RangeMax="0.19235966344708683">
          -0.002517000073567033 -0.17003700137138367 0.03150700032711029 0.0007639999967068434 -0.166935995221138 0.02638399973511696
          -0.0012400000123307109 -0.1667180061340332 0.021362999454140663 -0.006424000021070242 -0.16783800721168518 0.026043999940156937
          -0.002612000098451972 -0.17299899458885193 0.030220000073313713 0.0006939999875612557 -0.1708039939403534 0.025682000443339348
          -0.0061980001628398895 -0.17186300456523895 0.024911999702453613 -0.0013139999937266111 -0.17112599313259125 0.02111399918794632
          -0.003043999895453453 -0.17616499960422516 0.02944199927151203 -0.00037799999699927866 -0.17455600202083588 0.02584500052034855
          -0.005200999788939953 -0.17576399445533752 0.02507000043988228 -0.002397000091150403 -0.17507199943065643 0.02274399995803833
          -0.0030269999988377094 -0.17903099954128265 0.02850000001490116 -0.0005460000247694552 -0.17849600315093994 0.02572299912571907
          -0.0050570000894367695 -0.17988799512386322 0.025270000100135803 -0.002669000066816807 -0.17941099405288696 0.023194000124931335
          -0.001800999976694584 -0.18202799558639526 0.028947999700903893 -0.0005840000230818987 -0.18232500553131104 0.02626200020313263
          -0.004767000209540129 -0.18402199447155 0.025419000536203384 -0.002082000020891428 -0.18419599533081055 0.023159999400377274
          -0.0008789999992586672 -0.18503700196743011 0.02912300080060959 0.00033099998836405575 -0.18604399263858795 0.026491999626159668
          -0.0033390000462532043 -0.18762800097465515 0.026124000549316406 -0.0012080000014975667 -0.18846799433231354 0.023996999487280846
          -0.00011000000085914508 -0.18806999921798706 0.029187999665737152 -0.0007239999831654131 -0.18976299464702606 0.0270019993185997
          -0.0012519999872893095 -0.19035199284553528 0.02769099920988083
          <InformationKey name="L2_NORM_RANGE" location="vtkDataArray" length="2">
            <Value index="0">
              0.16808571895
            </Value>
            <Value index="1">
              0.19235966345
            </Value>
          </InformationKey>
        </DataArray>
      </Points>
      <Verts>
        <DataArray type="Int64" Name="connectivity" format="ascii" RangeMin="1e+299" RangeMax="-1e+299">
        </DataArray>
        <DataArray type="Int64" Name="offsets" format="ascii" RangeMin="1e+299" RangeMax="-1e+299">
        </DataArray>
      </Verts>
      <Lines>
        <DataArray type="Int64" Name="connectivity" format="ascii" RangeMin="1e+299" RangeMax="-1e+299">
        </DataArray>
        <DataArray type="Int64" Name="offsets" format="ascii" RangeMin="1e+299" RangeMax="-1e+299">
        </DataArray>
      </Lines>
      <Strips>
        <DataArray type="Int64" Name="connectivity" format="ascii" RangeMin="1e+299" RangeMax="-1e+299">
        </DataArray>
        <DataArray type="Int64" Name="offsets" format="ascii" RangeMin="1e+299" RangeMax="-1e+299">
        </DataArray>
      </Strips>
      <Polys>
        <DataArray type="Int32" Name="connectivity" format="ascii" RangeMin="0" RangeMax="26">
          0 1 2 3 1 0
          4 5 0 3 6 4
          2 1 5 7 3 2
          7 6 5 4 8 9
          4 6 10 8 7 5
          9 11 6 7 11 10
          9 8 12 13 8 10
          14 12 11 9 13 15
          10 11 15 14 13 12
          16 17 12 14 18 16
          15 13 17 19 14 15
          19 18 17 16 20 21
          16 18 22 20 19 17
          21 23 18 19 23 22
          21 20 24 25 20 22
          26 24 23 21 25 22
          23 25 26 25 24 26
        </DataArray>
        <DataArray type="Int32" Name="offsets" format="ascii" RangeMin="4" RangeMax="102">
          4 8 12 16 20 24
          28 32 36 40 44 48
          52 56 60 64 68 72
          76 80 84 88 92 95
          99 102
        </DataArray>
      </Polys>
    </Piece>
  </PolyData>
</VTKFile>
