<?xml version="1.0"?>
<VTKFile type="PolyData" version="0.1" byte_order="LittleEndian" header_type="UInt32" compressor="vtkZLibDataCompressor">
  <PolyData>
    <Piece NumberOfPoints="80" NumberOfVerts="0" NumberOfLines="0" NumberOfStrips="0" NumberOfPolys="86">
      <PointData Normals="Normals">
        <DataArray type="Float32" Name="Normals" NumberOfComponents="3" format="ascii" RangeMin="0.9999994328111885" RangeMax="1.0000006119774334">
          -0.9472000002861023 0.07542300224304199 -0.31164801120758057 -0.774058997631073 0.5878069996833801 -0.23519399762153625
          -0.5060219764709473 0.36524099111557007 -0.781370997428894 -0.7209290266036987 -0.22631700336933136 -0.6550130248069763
          -0.9244930148124695 -0.3629179894924164 0.11663799732923508 -0.729731023311615 0.4193660020828247 0.5400230288505554
          -0.5492830276489258 -0.8041499853134155 -0.22722400724887848 -0.05170999839901924 0.9723290205001831 -0.2278210073709488
          -0.13347500562667847 0.608089029788971 -0.7825679779052734 -0.1342640072107315 0.7842289805412292 0.6057699918746948
          -0.3493439853191376 -0.21880899369716644 -0.9110879898071289 -0.25290200114250183 -0.890733003616333 -0.3776719868183136
          -0.5050119757652283 -0.7888579964637756 -0.35023799538612366 -0.9073470234870911 -0.41648000478744507 0.05715100094676018
          -0.798882007598877 0.25827398896217346 0.5432149767875671 -0.27643200755119324 0.6048489809036255 0.7468219995498657
          -0.2276969999074936 -0.8728520274162292 -0.4316059947013855 0.5595660209655762 0.7902659773826599 -0.24973000586032867
          0.3265570104122162 0.7073609828948975 -0.6268979907035828 0.49476298689842224 0.685122013092041 0.5346180200576782
          0.13252000510692596 0.02422799915075302 -0.990884006023407 0.783195972442627 0.22654500603675842 -0.5790349841117859
          0.3899349868297577 0.5952309966087341 0.7026029825210571 0.208515003323555 -0.8609330058097839 -0.4640209972858429
          0.47695401310920715 -0.8078669905662537 -0.34621700644493103 -0.48552799224853516 -0.6589189767837524 -0.5745329856872559
          -0.9443920254707336 -0.3045560121536255 -0.1239750012755394 -0.11962500214576721 -0.7325320243835449 -0.6701390147209167
          -0.8436400294303894 0.24791300296783447 0.4762459993362427 -0.31437399983406067 0.5602399706840515 0.7663549780845642
          0.34587499499320984 0.6256269812583923 0.699258029460907 0.5488330125808716 -0.6022379994392395 -0.5797340273857117
          0.8823320269584656 0.3876250088214874 -0.26690301299095154 0.9664859771728516 0.04314500093460083 0.2530660033226013
          0.9573140144348145 0.05391399934887886 0.2839779853820801 0.7674360275268555 -0.5962389707565308 -0.2356719970703125
          0.9734079837799072 0.17205500602722168 0.1512400060892105 -0.4900360107421875 -0.6048349738121033 -0.6277260184288025
          -0.9069910049438477 -0.33322298526763916 -0.25754401087760925 -0.059411000460386276 -0.6628999710083008 -0.7463470101356506
          -0.9011499881744385 0.23105399310588837 0.366800993680954 0.6024680137634277 -0.47620201110839844 -0.6405190229415894
          -0.3489440083503723 0.6095240116119385 0.7118409872055054 0.23095999658107758 0.6982190012931824 0.6776040196418762
          0.9379739761352539 0.3250100016593933 0.12072400003671646 -0.12594999372959137 -0.5041940212249756 -0.8543570041656494
          -0.6159070134162903 -0.5026599764823914 -0.6066229939460754 -0.953125 -0.24581100046634674 -0.1764339953660965
          -0.8717820048332214 0.31109800934791565 0.37843599915504456 0.5185930132865906 -0.2476000040769577 -0.8183860182762146
          -0.3344990015029907 0.6712039709091187 0.6615110039710999 0.8254259824752808 0.5643829703330994 0.011983999982476234
          0.12959499657154083 0.7865830063819885 0.6037319898605347 -0.18799899518489838 -0.4014970064163208 -0.896356999874115
          -0.8294000029563904 -0.46438300609588623 -0.31055301427841187 0.3238910138607025 -0.36685800552368164 -0.8720719814300537
          -0.07642800360918045 -0.630728006362915 -0.7722309827804565 -0.9568489789962769 -0.2563380002975464 0.13685999810695648
          -0.8177880048751831 0.42082899808883667 0.3925879895687103 -0.3441379964351654 0.7320780158042908 0.5879039764404297
          0.5065249800682068 -0.09993699938058853 -0.8564140200614929 0.8381050229072571 0.45813998579978943 -0.2961220145225525
          0.6950010061264038 0.6984999775886536 0.1704999953508377 0.015721000730991364 0.8323559761047363 0.5540189743041992
          0.44751599431037903 -0.7479760050773621 -0.49016401171684265 0.10566099733114243 -0.8794199824333191 -0.46417200565338135
          -0.4555310010910034 -0.8586859703063965 0.23483799397945404 -0.6857089996337891 -0.5394260287284851 0.4886949956417084
          0.2647320032119751 -0.8757609724998474 -0.40368199348449707 0.7515249848365784 -0.6135240197181702 -0.24248400330543518
          -0.8169950246810913 0.09335699677467346 0.5690370202064514 -0.2874760031700134 0.3856639862060547 0.8767099976539612
          0.13623900711536407 0.45943400263786316 0.8777009844779968 0.9618250131607056 -0.18052999675273895 0.20567399263381958
          0.8089060187339783 0.07361400127410889 0.5833119750022888 0.4611789882183075 0.5335760116577148 0.7089499831199646
          0.29060399532318115 -0.8673499822616577 0.40404701232910156 0.4791629910469055 -0.7939919829368591 0.3741390109062195
          0.0010100000072270632 -0.462009996175766 0.8868740200996399 0.37583601474761963 -0.35947299003601074 0.8541229963302612
          <InformationKey name="L2_NORM_RANGE" location="vtkDataArray" length="2">
            <Value index="0">
              0.99999943281
            </Value>
            <Value index="1">
              1.000000612
            </Value>
          </InformationKey>
        </DataArray>
      </PointData>
      <CellData>
      </CellData>
      <Points>
        <DataArray type="Float32" Name="Points" NumberOfComponents="3" format="ascii" RangeMin="0.004081169147794126" RangeMax="0.05770417572912034">
          -0.013275000266730785 -0.0036959999706596136 0.007151999976485968 -0.011963999830186367 0.0013790000230073929 0.007464999798685312
          -0.009459000080823898 -0.0012440000427886844 0.003720999928191304 -0.010897999629378319 -0.005588999949395657 0.0024029999040067196
          -0.013024000450968742 -0.006364000029861927 0.010091000236570835 -0.01217699982225895 -0.0025530001148581505 0.012365000322461128
          -0.010014999657869339 -0.007600999902933836 0.005919000133872032 -0.0055240001529455185 0.004935000091791153 0.005516999866813421
          -0.005111999809741974 -0.00042699999175965786 0.002957999939098954 -0.007466999813914299 0.003745000110939145 0.010792000219225883
          -0.0068339998833835125 -0.005565000232309103 -0.0010779999429360032 -0.006111999973654747 -0.008138000033795834 0.002778999973088503
          -0.009080000221729279 -0.00894199963659048 0.009734000079333782 -0.011881999671459198 -0.007716999854892492 0.012412000447511673
          -0.01091499999165535 -0.005934999790042639 0.014671999961137772 -0.007178000174462795 -0.0015999999595806003 0.015782000496983528
          -0.005123000126332045 -0.010576000437140465 0.009058999828994274 0.00020599999697878957 0.0028810000512748957 0.00711800018325448
          -0.0014860000228509307 -0.000012000000424450263 0.0038010000716894865 -0.0009120000177063048 0.00227600010111928 0.011908000335097313
          -0.002061000093817711 -0.004757999908179045 -0.002455000067129731 0.0019030000548809767 -0.003771000076085329 0.001297999988310039
          -0.001576000009663403 -0.002655999967828393 0.015783000737428665 -0.0019990000873804092 -0.008586999960243702 0.0024850000627338886
          -0.0005549999768845737 -0.010649999603629112 0.009069000370800495 -0.007555000018328428 -0.014317000284790993 0.015275999903678894
          -0.010259999893605709 -0.012993000447750092 0.017116999253630638 -0.00430600019171834 -0.014534999616444111 0.0136329997330904
          -0.009828000329434872 -0.011366000398993492 0.018871000036597252 -0.0056859999895095825 -0.008604999631643295 0.021335000172257423
          -0.0013279999839141965 -0.007782999891787767 0.020573999732732773 -0.0007559999939985573 -0.01485500019043684 0.01459100004285574
          0.002394000068306923 -0.0010489999549463391 0.006643999833613634 0.0026710000820457935 -0.0027069998905062675 0.011222000233829021
          0.0020840000361204147 -0.005688000004738569 0.014041000045835972 0.00029399999766610563 -0.008849999867379665 0.005272999871522188
          0.002749999985098839 -0.009255999699234962 0.018647000193595886 -0.005987999960780144 -0.024546999484300613 0.024118000641465187
          -0.008333999663591385 -0.023888999596238136 0.02510800026357174 -0.0028329999186098576 -0.024872999638319016 0.023319000378251076
          -0.008983000181615353 -0.021782999858260155 0.02680099941790104 0.0011249999515712261 -0.024306999519467354 0.023778999224305153
          -0.003593999892473221 -0.019301999360322952 0.02996799908578396 0.0005029999883845448 -0.01913199946284294 0.030393999069929123
          0.00443200021982193 -0.020212000235915184 0.02848299965262413 -0.0031969998963177204 -0.03242500126361847 0.0296580009162426
          -0.005683000199496746 -0.03301199898123741 0.03119100071489811 -0.007664999924600124 -0.03266200050711632 0.033854998648166656
          -0.0067369998432695866 -0.03030500002205372 0.036531999707221985 0.002529999939724803 -0.030771000310778618 0.029659999534487724
          -0.0017810000572353601 -0.026845000684261322 0.03824400156736374 0.005450000055134296 -0.02594500035047531 0.035319000482559204
          0.002400999888777733 -0.02571599930524826 0.03767099976539612 -0.003155000042170286 -0.040189001709222794 0.031785998493433
          -0.005140999797731638 -0.039847999811172485 0.0344420000910759 0.00046800001291558146 -0.03761700168251991 0.033775001764297485
          0.004654000047594309 -0.0358630008995533 0.03293199837207794 -0.00737100001424551 -0.03678400069475174 0.03789300099015236
          -0.006773999892175198 -0.03213600069284439 0.03937600180506706 -0.0011790000135079026 -0.02977599948644638 0.0416410006582737
          0.007029000204056501 -0.034685999155044556 0.030709000304341316 0.0068430001847445965 -0.032235998660326004 0.034866999834775925
          0.007234000135213137 -0.028543999418616295 0.03920299932360649 0.0030950000509619713 -0.028426000848412514 0.041241999715566635
          0.0021039999555796385 -0.040247999131679535 0.03523600101470947 -0.0017219999572262168 -0.043175000697374344 0.03378299996256828
          -0.0037400000728666782 -0.04262100160121918 0.03824499994516373 -0.005022999830543995 -0.038123998790979385 0.04194200038909912
          0.00646300008520484 -0.03866500034928322 0.03502200171351433 0.00891599990427494 -0.03717000037431717 0.03386799991130829
          -0.006486999802291393 -0.03420399874448776 0.04236900061368942 -0.0015490000369027257 -0.031975001096725464 0.04462200030684471
          0.0037239999510347843 -0.03012000024318695 0.044084999710321426 0.00866399984806776 -0.03646700084209442 0.03773299977183342
          0.00800899975001812 -0.03234900161623955 0.04260599985718727 0.005518999882042408 -0.030169999226927757 0.043724000453948975
          0.0013150000013411045 -0.04098900035023689 0.03915400058031082 0.005917000118643045 -0.0378200002014637 0.0398700013756752
          -0.001323999953456223 -0.037271998822689056 0.04403200000524521 0.004714000038802624 -0.03371499851346016 0.04402200132608414
          <InformationKey name="L2_NORM_RANGE" location="vtkDataArray" length="2">
            <Value index="0">
              0.0040811691478
            </Value>
            <Value index="1">
              0.057704175729
            </Value>
          </InformationKey>
        </DataArray>
      </Points>
      <Verts>
        <DataArray type="Int64" Name="connectivity" format="ascii" RangeMin="1e+299" RangeMax="-1e+299">
        </DataArray>
        <DataArray type="Int64" Name="offsets" format="ascii" RangeMin="1e+299" RangeMax="-1e+299">
        </DataArray>
      </Verts>
      <Lines>
        <DataArray type="Int64" Name="connectivity" format="ascii" RangeMin="1e+299" RangeMax="-1e+299">
        </DataArray>
        <DataArray type="Int64" Name="offsets" format="ascii" RangeMin="1e+299" RangeMax="-1e+299">
        </DataArray>
      </Lines>
      <Strips>
        <DataArray type="Int64" Name="connectivity" format="ascii" RangeMin="1e+299" RangeMax="-1e+299">
        </DataArray>
        <DataArray type="Int64" Name="offsets" format="ascii" RangeMin="1e+299" RangeMax="-1e+299">
        </DataArray>
      </Strips>
      <Polys>
        <DataArray type="Int32" Name="connectivity" format="ascii" RangeMin="0" RangeMax="79">
          0 1 2 2 3 0
          1 0 4 5 0 3
          6 4 7 8 2 1
          7 1 5 9 3 2
          8 10 11 6 3 10
          4 6 12 13 4 13
          14 5 15 9 5 14
          16 12 6 11 17 18
          8 7 17 7 9 19
          10 8 20 20 8 18
          21 19 9 15 22 10
          20 23 11 11 23 24
          16 13 12 25 26 16
          27 25 12 28 14 13
          26 15 14 28 29 22
          15 29 30 16 24 31
          27 32 18 17 32 17
          19 33 21 18 32 19
          22 34 33 20 21 35
          23 33 35 21 32 34
          22 30 36 35 24 23
          36 31 24 34 24 35
          33 34 26 25 37 38
          39 37 25 27 40 28
          26 38 27 31 41 39
          29 28 40 42 30 29
          42 43 36 30 43 44
          44 41 31 36 45 46
          37 39 46 47 38 37
          40 38 47 48 49 45
          39 41 48 50 42 40
          51 49 41 44 43 42
          50 52 52 51 44 43
          53 54 45 45 55 53
          56 55 45 49 45 54
          46 54 57 47 46 48
          47 57 58 58 59 50
          48 49 60 56 60 49
          61 61 49 51 62 52
          50 59 63 63 62 51
          52 55 64 65 53 53
          65 66 54 54 67 57
          66 67 54 68 64 55
          56 56 60 69 68 57
          70 58 57 67 70 70
          71 59 58 63 59 71
          72 73 69 60 61 74
          73 61 62 75 74 62
          63 72 75 62 66 65
          64 76 76 64 68 77
          76 78 67 66 78 71
          70 67 77 68 69 73
          72 71 78 79 79 74
          75 72 73 74 79 77
          77 79 78 76
        </DataArray>
        <DataArray type="Int32" Name="offsets" format="ascii" RangeMin="3" RangeMax="328">
          3 6 10 14 18 22
          26 30 34 38 42 46
          50 54 57 61 65 69
          73 77 81 85 89 93
          97 100 104 107 111 115
          119 123 126 130 134 138
          142 146 150 154 158 162
          166 170 174 178 182 186
          190 194 198 201 204 208
          211 215 219 223 226 229
          233 237 241 245 249 252
          255 259 263 266 269 273
          277 281 285 288 292 296
          300 304 308 312 316 320
          324 328
        </DataArray>
      </Polys>
    </Piece>
  </PolyData>
</VTKFile>
