<?xml version="1.0"?>
<VTKFile type="PolyData" version="0.1" byte_order="LittleEndian" header_type="UInt32" compressor="vtkZLibDataCompressor">
  <PolyData>
    <Piece NumberOfPoints="42" NumberOfVerts="0" NumberOfLines="0" NumberOfStrips="0" NumberOfPolys="39">
      <PointData Normals="Normals">
        <DataArray type="Float32" Name="Normals" NumberOfComponents="3" format="ascii" RangeMin="0.9999994776522501" RangeMax="1.0000004729545753">
          0.8198300004005432 0.29661598801612854 0.48979300260543823 0.8595420122146606 0.22214999794960022 -0.46025800704956055
          -0.0729999989271164 0.37650999426841736 -0.9235320091247559 -0.8891400098800659 0.34347400069236755 -0.30241701006889343
          -0.80171799659729 0.34466099739074707 0.4883210062980652 0.08286099880933762 -0.6104909777641296 -0.787676990032196
          0.8606640100479126 -0.2186339944601059 0.4598430097103119 0.8964089751243591 -0.25933900475502014 -0.3594369888305664
          -0.026732999831438065 -0.20052599906921387 0.9793239831924438 -0.02200400084257126 -0.1369210034608841 0.9903380274772644
          0.049577001482248306 -0.3107990026473999 -0.9491819739341736 -0.9142249822616577 -0.1791210025548935 -0.3634670078754425
          -0.8550019860267639 -0.13176299631595612 0.5016080141067505 0.401977002620697 -0.9124270081520081 -0.07675600051879883
          -0.45236700773239136 -0.7246009707450867 0.5199210047721863 -0.6878849864006042 -0.7229830026626587 0.0640999972820282
          -0.9325900077819824 -0.21704499423503876 -0.2883880138397217 0.25804901123046875 -0.09741900116205215 -0.9612079858779907
          0.8959469795227051 -0.08755700290203094 -0.43544501066207886 0.8880190253257751 -0.0766109973192215 0.4533790051937103
          0.956853985786438 -0.09561599791049957 -0.274385005235672 0.009600000455975533 -0.05080199986696243 0.9986630082130432
          0.19782699644565582 -0.21476399898529053 -0.9564210176467896 -0.8439549803733826 -0.05201900005340576 0.5338860154151917
          -0.9098830223083496 -0.13393700122833252 -0.39264899492263794 0.738860011100769 -0.07117100059986115 0.6700900197029114
          0.30432000756263733 -0.8738260269165039 0.3792319893836975 -0.24837900698184967 -0.5113160014152527 0.822717010974884
          -0.24835099279880524 -0.10402800142765045 0.9630680084228516 -0.7444909811019897 -0.23738999664783478 0.624002993106842
          -0.7698690295219421 -0.11547800153493881 0.627668023109436 -0.9232739806175232 -0.06470199674367905 -0.37865298986434937
          0.24254100024700165 0.07054699957370758 -0.9675729870796204 0.9043759703636169 0.27515000104904175 -0.3261849880218506
          0.7339100241661072 0.3003830015659332 0.6092169880867004 0.8567590117454529 0.08944699913263321 0.5079010128974915
          0.9516289830207825 0.09536399692296982 -0.2920750081539154 -0.02342900075018406 -0.02609799988567829 0.9993849992752075
          0.23155200481414795 -0.09106499701738358 -0.968550980091095 -0.7957000136375427 -0.04794500023126602 0.6037899851799011
          -0.9212440252304077 -0.11723099648952484 -0.3708989918231964 -0.13581499457359314 -0.04964800179004669 0.9894890189170837
          <InformationKey name="L2_NORM_RANGE" location="vtkDataArray" length="2">
            <Value index="0">
              0.99999947765
            </Value>
            <Value index="1">
              1.000000473
            </Value>
          </InformationKey>
        </DataArray>
      </PointData>
      <CellData>
      </CellData>
      <Points>
        <DataArray type="Float32" Name="Points" NumberOfComponents="3" format="ascii" RangeMin="0.1377072511475221" RangeMax="0.17158517712257823">
          0.00019700000120792538 -0.13676099479198456 0.026993000879883766 -0.0006210000137798488 -0.13651500642299652 0.020680999383330345
          -0.00584500003606081 -0.13664600253105164 0.01603100076317787 -0.010642999783158302 -0.13698799908161163 0.020824000239372253
          -0.01028599962592125 -0.1372700035572052 0.025942999869585037 -0.005032999906688929 -0.1701200008392334 0.02180200070142746
          -0.002022000029683113 -0.1424430012702942 0.026726000010967255 -0.001979999942705035 -0.1420450061559677 0.021400999277830124
          -0.00455900002270937 -0.13679200410842896 0.02948799915611744 -0.004747000057250261 -0.14191000163555145 0.02861900068819523
          -0.004987000022083521 -0.14240500330924988 0.016697999089956284 -0.009856999851763248 -0.14253799617290497 0.020898999646306038
          -0.0095210000872612 -0.14256200194358826 0.02523300051689148 -0.0017549999756738544 -0.16933999955654144 0.02491600066423416
          -0.004133999813348055 -0.16866500675678253 0.025840999558568 -0.005423000082373619 -0.16976900398731232 0.02196500077843666
          -0.007772000040858984 -0.16495899856090546 0.022179000079631805 -0.003186000045388937 -0.16637299954891205 0.018644999712705612
          -0.0007689999765716493 -0.16453200578689575 0.023476000875234604 -0.00266100000590086 -0.14836600422859192 0.026527000591158867
          -0.0032160000409930944 -0.1476069986820221 0.022311000153422356 -0.004780999850481749 -0.14728300273418427 0.02788200043141842
          -0.005189999938011169 -0.1483220010995865 0.01824899949133396 -0.008403999730944633 -0.14776800572872162 0.026050999760627747
          -0.009019000455737114 -0.14806899428367615 0.02084900066256523 0.0020039998926222324 -0.1651410013437271 0.02739500068128109
          -0.0018570000538602471 -0.16860400140285492 0.028171999379992485 -0.0033660000190138817 -0.1686290055513382 0.027837000787258148
          -0.003604999976232648 -0.16325199604034424 0.02793700061738491 -0.006268000230193138 -0.16385699808597565 0.02539999969303608
          -0.007234999909996986 -0.15858200192451477 0.026023000478744507 -0.008460000157356262 -0.15931500494480133 0.021870000287890434
          -0.004182000178843737 -0.1604910045862198 0.020005999132990837 -0.002225999953225255 -0.1589210033416748 0.02304700016975403
          -0.0008919999818317592 -0.16043199598789215 0.027535999193787575 -0.002394000068306923 -0.1548130065202713 0.027135999873280525
          -0.0032430000137537718 -0.15334799885749817 0.022617999464273453 -0.005044000223278999 -0.15262000262737274 0.02761399932205677
          -0.005140999797731638 -0.1544869989156723 0.01893799938261509 -0.007691999897360802 -0.15312600135803223 0.026464000344276428
          -0.008667999878525734 -0.15367799997329712 0.02150600031018257 -0.004271000158041716 -0.15792199969291687 0.027814000844955444
          <InformationKey name="L2_NORM_RANGE" location="vtkDataArray" length="2">
            <Value index="0">
              0.13770725115
            </Value>
            <Value index="1">
              0.17158517712
            </Value>
          </InformationKey>
        </DataArray>
      </Points>
      <Verts>
        <DataArray type="Int64" Name="connectivity" format="ascii" RangeMin="1e+299" RangeMax="-1e+299">
        </DataArray>
        <DataArray type="Int64" Name="offsets" format="ascii" RangeMin="1e+299" RangeMax="-1e+299">
        </DataArray>
      </Verts>
      <Lines>
        <DataArray type="Int64" Name="connectivity" format="ascii" RangeMin="1e+299" RangeMax="-1e+299">
        </DataArray>
        <DataArray type="Int64" Name="offsets" format="ascii" RangeMin="1e+299" RangeMax="-1e+299">
        </DataArray>
      </Lines>
      <Strips>
        <DataArray type="Int64" Name="connectivity" format="ascii" RangeMin="1e+299" RangeMax="-1e+299">
        </DataArray>
        <DataArray type="Int64" Name="offsets" format="ascii" RangeMin="1e+299" RangeMax="-1e+299">
        </DataArray>
      </Strips>
      <Polys>
        <DataArray type="Int32" Name="connectivity" format="ascii" RangeMin="0" RangeMax="41">
          0 1 2 3 4 5
          1 0 6 7 0 8
          9 6 2 1 7 10
          3 2 10 11 4 3
          11 12 8 4 12 9
          5 13 14 15 16 17
          5 15 17 18 13 5
          7 6 19 20 6 9
          21 19 10 7 20 22
          9 12 23 21 11 10
          22 24 12 11 24 23
          18 25 26 13 13 26
          27 14 28 29 14 27
          29 16 15 14 30 31
          16 29 31 32 17 16
          32 33 18 17 33 34
          25 18 20 19 35 36
          19 21 37 35 22 20
          36 38 21 23 39 37
          24 22 38 40 23 24
          40 39 25 28 27 26
          34 41 28 25 41 30
          29 28 37 39 30 41
          39 40 31 30 40 38
          32 31 38 36 33 32
          36 35 34 33 35 37
          41 34
        </DataArray>
        <DataArray type="Int32" Name="offsets" format="ascii" RangeMin="6" RangeMax="158">
          6 10 14 18 22 26
          30 34 38 42 46 50
          54 58 62 66 70 74
          78 82 86 90 94 98
          102 106 110 114 118 122
          126 130 134 138 142 146
          150 154 158
        </DataArray>
      </Polys>
    </Piece>
  </PolyData>
</VTKFile>
