<?xml version="1.0"?>
<VTKFile type="PolyData" version="0.1" byte_order="LittleEndian" header_type="UInt32" compressor="vtkZLibDataCompressor">
  <PolyData>
    <Piece NumberOfPoints="195" NumberOfVerts="0" NumberOfLines="0" NumberOfStrips="0" NumberOfPolys="386">
      <PointData Normals="Normals">
        <DataArray type="Float32" Name="Normals" NumberOfComponents="3" format="ascii" RangeMin="0.9999993797443237" RangeMax="1.0000005990863077">
          0.20966599881649017 0.7624980211257935 0.6120759844779968 0.4321630001068115 0.747514009475708 0.5044379830360413
          0.30695998668670654 0.9513300061225891 -0.027336999773979187 0.39264699816703796 0.6107100248336792 0.6876490116119385
          -0.15196199715137482 0.7078530192375183 0.6898199915885925 0.05162699893116951 0.543129026889801 0.8380609750747681
          0.3009899854660034 0.6720420122146606 0.6765829920768738 0.4101180136203766 0.9043239951133728 -0.11832600086927414
          0.6855720281600952 0.5685719847679138 0.4546610116958618 0.4331440031528473 0.7710409760475159 -0.4667789936065674
          -0.1895810067653656 0.9802259802818298 0.05670800060033798 0.21336600184440613 0.6784939765930176 -0.7029370069503784
          0.6898940205574036 0.5866450071334839 -0.42413899302482605 -0.22146299481391907 0.3008739948272705 0.9275929927825928
          -0.3542259931564331 0.5035319924354553 0.788021981716156 0.38366299867630005 0.2065570056438446 0.9000759720802307
          0.49323201179504395 0.6214969754219055 0.6086580157279968 0.8532729744911194 0.486966997385025 -0.18651799857616425
          0.5730839967727661 0.6023039817810059 -0.5557010173797607 0.998386025428772 0.04510600119829178 -0.03452400118112564
          0.8911370038986206 -0.066211998462677 0.4488779902458191 -0.38364800810813904 0.9125170111656189 -0.141866996884346
          -0.1716500073671341 0.7342939972877502 -0.6567720174789429 -0.4788550138473511 0.7996739745140076 0.3622409999370575
          0.4130989909172058 0.44273799657821655 -0.795822024345398 0.028294000774621964 0.3956480026245117 -0.9179660081863403
          -0.00535399978980422 0.3823539912700653 -0.9240000247955322 0.5982900261878967 0.45766401290893555 -0.6577169895172119
          0.05538100004196167 0.5041890144348145 0.8618159890174866 0.2108680009841919 0.28259700536727905 0.9357749819755554
          -0.1942639946937561 0.49191999435424805 0.8486909866333008 -0.2051060050725937 0.3520579934120178 0.9132289886474609
          0.23154200613498688 -0.03604000061750412 0.9721570014953613 0.15275900065898895 -0.15446999669075012 0.9761170148849487
          -0.22391100227832794 0.38081398606300354 0.8971310257911682 0.23885899782180786 -0.09112200140953064 0.9667689800262451
          -0.3856379985809326 0.5172510147094727 0.7640249729156494 -0.44463101029396057 0.5978389978408813 0.6670020222663879
          0.6288959980010986 -0.28892600536346436 0.7218109965324402 0.8009430170059204 0.41969001293182373 -0.42702600359916687
          0.8741250038146973 0.12579500675201416 -0.4691289961338043 0.8894709944725037 0.3446199893951416 -0.3001300096511841
          0.9546809792518616 -0.24764999747276306 0.16508899629116058 0.6409469842910767 -0.266418993473053 0.7198669910430908
          0.7360140085220337 -0.2991870045661926 0.6072649955749512 -0.4754289984703064 0.7555170059204102 -0.4507339894771576
          -0.4804289937019348 0.8761199712753296 -0.04002299904823303 -0.5749199986457825 0.8179969787597656 0.01862199977040291
          -0.09685400128364563 0.5934720039367676 -0.7990059852600098 -0.5212029814720154 0.6447510123252869 0.559145987033844
          -0.570626974105835 0.799543023109436 0.187391996383667 0.4177840054035187 0.2854839861392975 -0.8625280261039734
          0.38715100288391113 0.24037599563598633 -0.8901309967041016 0.015251999720931053 0.43321698904037476 -0.9011610150337219
          -0.1930840015411377 0.4177820086479187 -0.8877930045127869 0.08579400181770325 0.3861989974975586 -0.9184169769287109
          0.259552001953125 0.2621450126171112 -0.9294689893722534 0.026086000725626945 0.25716400146484375 -0.9660159945487976
          0.46752798557281494 0.37069499492645264 0.8024979829788208 0.35866299271583557 0.31723400950431824 0.8779079914093018
          -0.2607150077819824 0.548416018486023 0.7945230007171631 0.26809799671173096 0.5807179808616638 0.7686939835548401
          0.31852900981903076 0.2576740086078644 0.9122189879417419 0.4099160134792328 0.09467300027608871 0.9071969985961914
          0.3745970129966736 0.005752999801188707 0.9271699786186218 -0.19988000392913818 0.5596479773521423 0.804265022277832
          -0.18980300426483154 0.4632759988307953 0.8656499981880188 -0.46257999539375305 0.4506340026855469 0.76350998878479
          0.2989889979362488 0.016598999500274658 0.9541119933128357 0.5047370195388794 -0.16111299395561218 0.8481060266494751
          0.44906800985336304 -0.28207701444625854 0.847802996635437 -0.32463398575782776 0.42395898699760437 0.8455010056495667
          -0.23821599781513214 0.40886399149894714 0.8809559941291809 -0.23742899298667908 0.405582994222641 0.8826829791069031
          -0.7573999762535095 0.531020998954773 0.37995100021362305 0.6690559983253479 0.10289499908685684 -0.7360550165176392
          0.8185939788818359 -0.1206979975104332 0.5615479946136475 0.8404430150985718 -0.4734860062599182 0.2635670006275177
          0.9857779741287231 -0.1529349982738495 -0.06965900212526321 0.9915329813957214 -0.12933699786663055 0.01158399973064661
          0.9306049942970276 -0.24969400465488434 -0.26763299107551575 0.9324120283126831 -0.36139601469039917 -0.0005259999888949096
          0.9806730151176453 -0.195592999458313 -0.004774999804794788 0.7360680103302002 -0.23674899339675903 0.6341559886932373
          -0.36075299978256226 0.718520998954773 -0.5946300029754639 -0.7630370259284973 0.44865700602531433 -0.46527600288391113
          -0.7564839720726013 0.6348180174827576 -0.1572829931974411 -0.41847100853919983 0.5910620093345642 -0.6895859837532043
          0.03243900090456009 0.4399360120296478 -0.8974429965019226 -0.09155400097370148 0.31111499667167664 -0.9459519982337952
          -0.22711099684238434 0.23007699847221375 -0.9463009834289551 -0.6172159910202026 0.40039899945259094 -0.6772930026054382
          -0.7112910151481628 0.4097529947757721 -0.5711110234260559 0.11615400016307831 0.4559830129146576 -0.8823760151863098
          -0.17322899401187897 0.4673509895801544 -0.8669340014457703 0.1405320018529892 0.3240100145339966 -0.935558021068573
          0.18874600529670715 -0.2121109962463379 -0.9588450193405151 -0.06876300275325775 0.5113109946250916 -0.8566399812698364
          0.18230099976062775 0.2534700036048889 -0.9500100016593933 0.09132099896669388 0.3659780025482178 -0.9261320233345032
          0.29293501377105713 0.02742600068449974 -0.9557390213012695 0.1967419981956482 -0.15259400010108948 -0.9685080051422119
          0.6200540065765381 0.3118560016155243 0.7199159860610962 0.3763279914855957 0.4183399975299835 0.8266609907150269
          0.541595995426178 0.24799099564552307 0.8032270073890686 0.7592309713363647 -0.021886000409722328 0.6504529714584351
          0.4140700101852417 0.14788700640201569 0.8981509804725647 0.5402989983558655 0.1692509949207306 0.8242759704589844
          0.21685700118541718 0.35701701045036316 0.908577024936676 0.11575199663639069 0.12228800356388092 0.985722005367279
          0.14941300451755524 0.5133810043334961 0.8450539708137512 -0.2735239863395691 0.20945300161838531 0.9387829899787903
          0.4150620102882385 0.1227250024676323 0.9014779925346375 0.6091930270195007 0.026770999655127525 0.7925699949264526
          0.43997201323509216 -0.09830400347709656 0.892615020275116 0.6269909739494324 -0.13649499416351318 0.7669749855995178
          -0.24463999271392822 0.4678080081939697 0.8492980003356934 -0.49911001324653625 0.5291969776153564 0.6861780285835266
          0.3978419899940491 -0.1062920019030571 -0.9112759828567505 0.6823880076408386 -0.11816100031137466 -0.7213770151138306
          0.9421640038490295 -0.19536900520324707 -0.2723180055618286 0.563090980052948 -0.8259639739990234 -0.026691999286413193
          0.7042750120162964 -0.7063170075416565 -0.0715079978108406 0.4047529995441437 -0.9142029881477356 0.02017500065267086
          0.5544989705085754 -0.7642319798469543 0.32936400175094604 0.731590986251831 -0.4224900007247925 0.5350480079650879
          0.6915609836578369 -0.23590299487113953 -0.6827110052108765 0.6667940020561218 -0.4548029899597168 -0.5903729796409607
          0.43687400221824646 -0.32106301188468933 -0.8402730226516724 0.6924279928207397 -0.6521030068397522 -0.3087159991264343
          -0.6023150086402893 0.4478929936885834 -0.6607630252838135 -0.47687599062919617 0.6313070058822632 -0.6115880012512207
          -0.7435470223426819 0.532696008682251 -0.4041939973831177 -0.8387969732284546 0.5129579901695251 -0.18246300518512726
          -0.8075169920921326 0.5085800290107727 0.2987689971923828 -0.24455800652503967 0.6446260213851929 -0.724327027797699
          -0.3148379921913147 0.41920599341392517 -0.8515530228614807 -0.10789000242948532 -0.726993978023529 -0.6781150102615356
          0.03699199855327606 -0.8910009860992432 -0.45249098539352417 -0.03388600051403046 -0.07558000087738037 -0.9965639710426331
          -0.2771120071411133 -0.25723201036453247 -0.9257649779319763 0.34353700280189514 -0.6126779913902283 -0.7117639780044556
          0.6495239734649658 0.018063999712467194 0.760125994682312 0.7698760032653809 -0.21719999611377716 0.6000959873199463
          0.09078200161457062 -0.3813619911670685 0.9199569821357727 0.6363850235939026 -0.25373101234436035 0.7284470200538635
          -0.36941200494766235 -0.24839000403881073 0.8954539895057678 -0.38462701439857483 -0.19109900295734406 0.9030740261077881
          -0.38565900921821594 -0.22881600260734558 0.8938180208206177 -0.3172990083694458 -0.05430600047111511 0.9467689990997314
          -0.32531601190567017 0.22547300159931183 0.9183310270309448 -0.3040210008621216 0.34856998920440674 0.886605978012085
          0.22207100689411163 -0.9506949782371521 -0.2164819985628128 0.3558480143547058 -0.9069089889526367 -0.2255840003490448
          0.4925839900970459 -0.836663007736206 -0.2394919991493225 0.16712899506092072 -0.9857339859008789 -0.019884999841451645
          -0.014441999606788158 -0.9948959946632385 -0.09986300021409988 0.2880060076713562 -0.939083993434906 0.1875469982624054
          0.004947000183165073 -0.9837030172348022 -0.17973199486732483 0.4289630055427551 -0.6451830267906189 0.6322420239448547
          0.07917100191116333 -0.7888529896736145 0.6094610095024109 0.10556700080633163 -0.9343010187149048 0.3404960036277771
          0.49571600556373596 -0.4495140016078949 0.7431039810180664 0.6892179846763611 -0.305978000164032 0.656777024269104
          0.3075680136680603 -0.8924090266227722 -0.33016300201416016 -0.6865220069885254 0.6540700197219849 -0.31761598587036133
          -0.48886099457740784 0.7127689719200134 -0.5029670000076294 -0.8571230173110962 0.3337090015411377 -0.3924010097980499
          -0.8939570188522339 0.24316999316215515 -0.3764429986476898 -0.7371320128440857 0.5919359922409058 -0.3259580135345459
          -0.8589040040969849 0.3502820134162903 -0.37361299991607666 -0.9612129926681519 0.19394700229167938 -0.19609799981117249
          -0.9135069847106934 -0.2599700093269348 0.31292399764060974 -0.5435929894447327 -0.09966299682855606 0.8334109783172607
          -0.9365050196647644 0.05458199977874756 0.3463810086250305 -0.3976820111274719 0.11217399686574936 -0.9106400012969971
          -0.724560022354126 0.2809549868106842 -0.629347026348114 -0.7701119780540466 -0.45175600051879883 -0.4503819942474365
          -0.3674190044403076 -0.9232820272445679 -0.11204300075769424 -0.7115809917449951 -0.19938799738883972 -0.6737189888954163
          -0.2930769920349121 -0.9164630174636841 0.27239999175071716 -0.7498859763145447 0.01140700001269579 -0.6614689826965332
          -0.3461360037326813 -0.5382620096206665 0.7684170007705688 -0.42170000076293945 -0.4813149869441986 0.7684429883956909
          -0.4083710014820099 -0.2441360056400299 0.8795629739761353 -0.4416869878768921 -0.46786999702453613 0.765513002872467
          -0.3917120099067688 -0.264708012342453 0.8811879754066467 -0.3614940047264099 -0.3343549966812134 0.8703609704971313
          -0.07363200187683105 -0.9914029836654663 0.10815799981355667 -0.9035919904708862 -0.38470301032066345 -0.18848200142383575
          -0.8430160284042358 -0.5378869771957397 -0.0008740000193938613 -0.49551600217819214 -0.8439170122146606 0.20559099316596985
          -0.4096609950065613 -0.49075400829315186 0.7689859867095947 -0.5102429986000061 -0.6546509861946106 0.5577489733695984
          -0.5159199833869934 -0.8534029722213745 0.07437100261449814
          <InformationKey name="L2_NORM_RANGE" location="vtkDataArray" length="2">
            <Value index="0">
              0.99999937974
            </Value>
            <Value index="1">
              1.0000005991
            </Value>
          </InformationKey>
        </DataArray>
      </PointData>
      <CellData>
      </CellData>
      <Points>
        <DataArray type="Float32" Name="Points" NumberOfComponents="3" format="ascii" RangeMin="0.09353488597824045" RangeMax="0.12553903122070223">
          0.11618199944496155 0.029906999319791794 -0.0203699991106987 0.11777400225400925 0.029293999075889587 -0.020560000091791153
          0.11657600104808807 0.030256999656558037 -0.021445000544190407 0.11727800220251083 0.02878900058567524 -0.01969200000166893
          0.11140400171279907 0.03000500053167343 -0.019915999844670296 0.11518599838018417 0.028429999947547913 -0.01881599985063076
          0.11717399954795837 0.028269000351428986 -0.019247999414801598 0.11799599975347519 0.02982800081372261 -0.02179500088095665
          0.119998998939991 0.02797600068151951 -0.021164000034332275 0.11781200021505356 0.028555000200867653 -0.023372000083327293
          0.10894600301980972 0.03017600066959858 -0.021588999778032303 0.11719200015068054 0.02843499928712845 -0.025832999497652054
          0.11806699633598328 0.027533000335097313 -0.025539999827742577 0.10378199815750122 0.02327599935233593 -0.02047000080347061
          0.10047099739313126 0.026260999962687492 -0.02264999970793724 0.1182129979133606 0.026704000309109688 -0.01789899915456772
          0.11860600113868713 0.027413999661803246 -0.018803000450134277 0.12020999938249588 0.028497999534010887 -0.022304000332951546
          0.11896199733018875 0.026649000123143196 -0.025185000151395798 0.12043700367212296 0.026782000437378883 -0.02189899981021881
          0.12031400203704834 0.02707800082862377 -0.02097800001502037 0.10071899741888046 0.027667000889778137 -0.025502000004053116
          0.1017099991440773 0.027494000270962715 -0.02731500007212162 0.10169800370931625 0.028308000415563583 -0.023469999432563782
          0.11781200021505356 0.026055999100208282 -0.026907000690698624 0.11568199843168259 0.02236899919807911 -0.0284269992262125
          0.11678499728441238 0.02399200014770031 -0.02783999964594841 0.1187020018696785 0.025211000815033913 -0.02662999927997589
          0.11199100315570831 0.01744999922811985 -0.0160910002887249 0.11256600171327591 0.01868399977684021 -0.016705000773072243
          0.09942100197076797 0.018484000116586685 -0.019682999700307846 0.09803900122642517 0.02002899907529354 -0.02063800022006035
          0.1148340031504631 0.02206600084900856 -0.017792999744415283 0.11586499959230423 0.023181000724434853 -0.01773799955844879
          0.0985179990530014 0.021229000762104988 -0.020973000675439835 0.11733900010585785 0.025596000254154205 -0.017674999311566353
          0.09876900166273117 0.02509400062263012 -0.022638000547885895 0.09919899702072144 0.025843000039458275 -0.02311900071799755
          0.11792299896478653 0.025283999741077423 -0.018167000263929367 0.11979500204324722 0.027007000520825386 -0.02376299910247326
          0.11969300359487534 0.025419000536203384 -0.025704000145196915 0.12009900063276291 0.026504000648856163 -0.023886000737547874
          0.11630500108003616 0.016196999698877335 -0.021278999745845795 0.11733999848365784 0.02309500053524971 -0.018557000905275345
          0.11703900247812271 0.021031999960541725 -0.019094999879598618 0.0989459976553917 0.02662299945950508 -0.026149999350309372
          0.10064399987459183 0.027627000585198402 -0.024746999144554138 0.09883800148963928 0.026670999825000763 -0.025364000350236893
          0.10166200250387192 0.024894999340176582 -0.028568999841809273 0.09977699816226959 0.026812000200152397 -0.02354300022125244
          0.10011500120162964 0.02740900032222271 -0.024095000699162483 0.11823999881744385 0.023646000772714615 -0.02787799946963787
          0.11737900227308273 0.022319000214338303 -0.028502000495791435 0.11652500182390213 0.021203000098466873 -0.029059000313282013
          0.09941799938678741 0.02297299914062023 -0.029749000445008278 0.10215800255537033 0.020258000120520592 -0.030541999265551567
          0.10177099704742432 0.016011999920010567 -0.032148998230695724 0.11080099642276764 0.015562999993562698 -0.0312460009008646
          0.11213500052690506 0.015217999927699566 -0.014979000203311443 0.11270800232887268 0.01765199936926365 -0.016401000320911407
          0.1097629964351654 0.014959000051021576 -0.014429000206291676 0.11150600016117096 0.016183000057935715 -0.0149940000846982
          0.11328600347042084 0.018882999196648598 -0.01696000061929226 0.11471399664878845 0.01988700032234192 -0.01773099973797798
          0.11466299742460251 0.02095700055360794 -0.017819000408053398 0.09713699668645859 0.017587000504136086 -0.01947000063955784
          0.09754300117492676 0.01881599985063076 -0.020260000601410866 0.09626500308513641 0.01970900036394596 -0.020868999883532524
          0.11515899747610092 0.020726000890135765 -0.017954999580979347 0.11609899997711182 0.02114499919116497 -0.018254000693559647
          0.1171180009841919 0.0236239992082119 -0.018303999677300453 0.09830799698829651 0.023831000551581383 -0.02219800092279911
          0.09804700314998627 0.022683000192046165 -0.02174600027501583 0.09761399775743484 0.02153399959206581 -0.021321000531315804
          0.09774599969387054 0.024768000468611717 -0.023082999512553215 0.11705899983644485 0.020086999982595444 -0.02938699908554554
          0.11556199938058853 0.015964999794960022 -0.018876999616622925 0.11348699778318405 0.005429000128060579 -0.02087000012397766
          0.11620199680328369 0.013364000245928764 -0.028219999745488167 0.11598099768161774 0.011339000426232815 -0.027924999594688416
          0.11568800359964371 0.009277000091969967 -0.028641000390052795 0.11536599695682526 0.007156999781727791 -0.026472000405192375
          0.1165509968996048 0.014972000382840633 -0.028410999104380608 0.11651500314474106 0.020193999633193016 -0.01893400028347969
          0.09890499711036682 0.025980999693274498 -0.02695699967443943 0.09800499677658081 0.02474600076675415 -0.027334999293088913
          0.09838400036096573 0.026271000504493713 -0.025993000715970993 0.0989459976553917 0.025306999683380127 -0.02773899957537651
          0.11612299829721451 0.02028300054371357 -0.02954299934208393 0.10036200284957886 0.020586999133229256 -0.030574999749660492
          0.09935200214385986 0.021091999486088753 -0.03034600056707859 0.09867600351572037 0.022727999836206436 -0.029318999499082565
          0.09766700118780136 0.018933000043034554 -0.030230000615119934 0.10069900006055832 0.018619000911712646 -0.0315219983458519
          0.09990900009870529 0.01891399919986725 -0.031238000839948654 0.09987799823284149 0.015982000157237053 -0.03304300084710121
          0.09889200329780579 0.011008000001311302 -0.03319599851965904 0.1003120020031929 0.017253000289201736 -0.03229900076985359
          0.11562299728393555 0.018566999584436417 -0.030274000018835068 0.11584100127220154 0.019387999549508095 -0.029972000047564507
          0.11538799852132797 0.01753699965775013 -0.03054100088775158 0.11407499760389328 0.015331000089645386 -0.030538000166416168
          0.11167199909687042 0.015130000188946724 -0.01445899996906519 0.11269000172615051 0.016467999666929245 -0.015838000923395157
          0.11274799704551697 0.015267999842762947 -0.015208999626338482 0.11266999691724777 0.012999000027775764 -0.014736000448465347
          0.11374299973249435 0.018912000581622124 -0.017170999199151993 0.11433500051498413 0.01761999912559986 -0.017247000709176064
          0.1108120009303093 0.01346299983561039 -0.013220000080764294 0.11052799969911575 0.011951000429689884 -0.012662000022828579
          0.1110759973526001 0.014894000254571438 -0.013919999822974205 0.10044699907302856 0.014314999803900719 -0.016874000430107117
          0.11423800140619278 0.018850000575184822 -0.01738099940121174 0.1147959977388382 0.01865600049495697 -0.01762400008738041
          0.11566399782896042 0.02039100043475628 -0.018107999116182327 0.11585699766874313 0.019036000594496727 -0.01863900013267994
          0.09678000211715698 0.01634800061583519 -0.01866300031542778 0.0946820005774498 0.01691799983382225 -0.01980300061404705
          0.11564499884843826 0.015575000084936619 -0.030292000621557236 0.11637800186872482 0.015355000272393227 -0.02984599955379963
          0.11665099859237671 0.015297000296413898 -0.029412999749183655 0.11325900256633759 0.004745000042021275 -0.023750999942421913
          0.11471199989318848 0.006018000189214945 -0.026078000664711 0.11269800364971161 0.004403000231832266 -0.022187000140547752
          0.11169599741697311 0.0043310001492500305 -0.019253000617027283 0.11112599819898605 0.005975000094622374 -0.015579000115394592
          0.11592099815607071 0.013427999801933765 -0.029718000441789627 0.1150439977645874 0.007708999793976545 -0.028429999947547913
          0.11493100225925446 0.009428000077605247 -0.029425999149680138 0.11468300223350525 0.0064119999296963215 -0.027546999976038933
          0.09842900186777115 0.023959999904036522 -0.028304999694228172 0.09728500247001648 0.015836000442504883 -0.03227299824357033
          0.09650500118732452 0.01576399989426136 -0.03135399892926216 0.09109800308942795 0.010981000028550625 -0.024397000670433044
          0.09336800128221512 0.014661000110208988 -0.0192050002515316 0.09879600256681442 0.01595200039446354 -0.03278600051999092
          0.09614499658346176 0.013907000422477722 -0.03387000039219856 0.09681200236082077 0.007972000166773796 -0.031585998833179474
          0.10853499919176102 0.006051999982446432 -0.029178999364376068 0.09575200080871582 0.01235199999064207 -0.033893000334501266
          0.09499000012874603 0.011229000054299831 -0.033640000969171524 0.11407800018787384 0.006382000166922808 -0.028189999982714653
          0.11114100366830826 0.01228800043463707 -0.013097000308334827 0.11113099753856659 0.010639999993145466 -0.013544999994337559
          0.10945200175046921 0.008286000229418278 -0.013034000061452389 0.11068099737167358 0.008817999623715878 -0.013659999705851078
          0.09775900095701218 0.009519999846816063 -0.017416000366210938 0.09603200107812881 0.009847000241279602 -0.018042000010609627
          0.0950779989361763 0.010223000310361385 -0.01839200034737587 0.09523899853229523 0.012071000412106514 -0.01819000020623207
          0.0953570008277893 0.013864999637007713 -0.01816600002348423 0.09657400101423264 0.014967000111937523 -0.01817999966442585
          0.11253300309181213 0.004534999839961529 -0.024181999266147614 0.11376100033521652 0.005268999841064215 -0.025458000600337982
          0.11413499712944031 0.005762000102549791 -0.026503000408411026 0.11139000207185745 0.003920000046491623 -0.020771000534296036
          0.10989399999380112 0.0038689998909831047 -0.021335000172257423 0.11093399673700333 0.0039090001955628395 -0.019283000379800797
          0.11065399646759033 0.0040779998525977135 -0.023253999650478363 0.11053100228309631 0.005576999858021736 -0.01537800021469593
          0.1098719984292984 0.0051020001992583275 -0.015495000407099724 0.11036600172519684 0.004412999842315912 -0.017462000250816345
          0.1102520003914833 0.00711200013756752 -0.014120000414550304 0.11083599925041199 0.007331999950110912 -0.014516999945044518
          0.11360099911689758 0.005642999894917011 -0.027055999264121056 0.09595300257205963 0.014794999733567238 -0.03194800019264221
          0.09671200066804886 0.014866000041365623 -0.03311700001358986 0.09240099787712097 0.010270999744534492 -0.03040900081396103
          0.09147000312805176 0.00953499972820282 -0.02892499975860119 0.0953890010714531 0.013938999734818935 -0.032652001827955246
          0.09305799752473831 0.010781999677419662 -0.031355999410152435 0.09106600284576416 0.009436000138521194 -0.02770400047302246
          0.09050700068473816 0.009518999606370926 -0.021601999178528786 0.09150499850511551 0.012110999785363674 -0.01933000050485134
          0.09097100049257278 0.010777000337839127 -0.02023099921643734 0.09543299674987793 0.012786000035703182 -0.03381900116801262
          0.09440000355243683 0.01185499969869852 -0.033330000936985016 0.09153900295495987 0.008183999918401241 -0.029184000566601753
          0.09334000200033188 0.006572999991476536 -0.026938000693917274 0.09354999661445618 0.00990699976682663 -0.03236500173807144
          0.09597700089216232 0.006566999945789576 -0.02018599957227707 0.09385299682617188 0.01102100033313036 -0.03282500058412552
          0.09769000113010406 0.007817000150680542 -0.018400000408291817 0.09597299993038177 0.008142000064253807 -0.019019000232219696
          0.09423500299453735 0.010603000409901142 -0.018693000078201294 0.09243199974298477 0.009684000164270401 -0.02017500065267086
          0.09337799996137619 0.010986000299453735 -0.01896899938583374 0.09254200011491776 0.011376000009477139 -0.019214000552892685
          0.10946299880743027 0.0038640000857412815 -0.01962600089609623 0.0908610001206398 0.008534999564290047 -0.02729099988937378
          0.09065999835729599 0.00829199980944395 -0.025304999202489853 0.0926470011472702 0.007329000160098076 -0.023121999576687813
          0.09146200120449066 0.010285000316798687 -0.02027300000190735 0.09240200370550156 0.0080960001796484 -0.021330999210476875
          0.09200700372457504 0.007294999901205301 -0.025133000686764717
          <InformationKey name="L2_NORM_RANGE" location="vtkDataArray" length="2">
            <Value index="0">
              0.093534885978
            </Value>
            <Value index="1">
              0.12553903122
            </Value>
          </InformationKey>
        </DataArray>
      </Points>
      <Verts>
        <DataArray type="Int64" Name="connectivity" format="ascii" RangeMin="1e+299" RangeMax="-1e+299">
        </DataArray>
        <DataArray type="Int64" Name="offsets" format="ascii" RangeMin="1e+299" RangeMax="-1e+299">
        </DataArray>
      </Verts>
      <Lines>
        <DataArray type="Int64" Name="connectivity" format="ascii" RangeMin="1e+299" RangeMax="-1e+299">
        </DataArray>
        <DataArray type="Int64" Name="offsets" format="ascii" RangeMin="1e+299" RangeMax="-1e+299">
        </DataArray>
      </Lines>
      <Strips>
        <DataArray type="Int64" Name="connectivity" format="ascii" RangeMin="1e+299" RangeMax="-1e+299">
        </DataArray>
        <DataArray type="Int64" Name="offsets" format="ascii" RangeMin="1e+299" RangeMax="-1e+299">
        </DataArray>
      </Strips>
      <Polys>
        <DataArray type="Int32" Name="connectivity" format="ascii" RangeMin="0" RangeMax="194">
          0 1 2 3 1 0
          2 4 0 5 6 0
          6 3 0 5 0 4
          7 2 1 3 8 1
          7 1 8 7 9 2
          2 10 4 11 2 12
          2 9 12 10 2 11
          6 8 3 5 4 13
          13 4 14 4 10 14
          15 5 13 15 16 5
          16 6 5 16 8 6
          7 8 17 18 7 17
          7 18 9 8 19 17
          20 8 16 19 8 20
          12 9 18 21 10 22
          10 11 22 10 23 14
          10 21 23 12 24 11
          11 25 22 25 11 26
          24 26 11 18 27 12
          27 24 12 13 28 29
          30 28 13 13 31 30
          32 33 13 14 34 13
          33 35 13 35 15 13
          32 13 29 13 34 31
          34 14 36 14 23 37
          37 36 14 38 20 15
          38 15 35 15 20 16
          39 17 19 18 17 39
          39 40 18 27 18 40
          19 41 39 41 19 40
          19 42 40 19 20 42
          43 20 38 20 43 44
          20 44 42 45 21 22
          23 21 46 46 21 47
          47 21 45 48 45 22
          25 48 22 23 49 37
          23 50 49 23 46 50
          27 51 24 26 24 51
          52 25 51 53 25 52
          54 48 25 55 54 25
          25 56 55 57 56 25
          53 57 25 26 51 25
          51 27 40 58 59 28
          60 61 28 28 30 60
          28 61 58 29 28 59
          62 63 29 63 64 29
          64 32 29 29 59 62
          30 65 60 66 30 31
          30 66 65 67 31 34
          67 66 31 68 69 32
          32 70 33 70 32 69
          32 64 68 70 35 33
          71 72 34 34 36 71
          72 73 34 34 73 67
          70 38 35 74 36 37
          71 36 74 37 49 74
          38 70 43 41 40 39
          52 51 40 40 75 52
          75 40 42 76 77 42
          78 42 79 42 80 79
          42 81 80 82 75 42
          78 82 42 77 81 42
          83 76 42 44 83 42
          69 43 70 43 69 44
          69 83 44 84 45 48
          85 86 45 45 84 85
          47 45 86 50 46 47
          74 50 47 86 74 47
          54 87 48 87 84 48
          50 74 49 52 75 53
          53 88 57 88 53 75
          54 55 89 54 89 90
          87 54 91 92 91 54
          54 90 92 93 94 55
          94 89 55 56 93 55
          95 56 96 95 97 56
          97 93 56 57 96 56
          98 57 99 98 100 57
          96 57 101 88 99 57