<?xml version="1.0"?>
<VTKFile type="PolyData" version="0.1" byte_order="LittleEndian" header_type="UInt32" compressor="vtkZLibDataCompressor">
  <PolyData>
    <Piece NumberOfPoints="1000" NumberOfVerts="0" NumberOfLines="0" NumberOfStrips="0" NumberOfPolys="1455">
      <PointData Normals="Normals">
        <DataArray type="Float32" Name="Normals" NumberOfComponents="3" format="ascii" RangeMin="0.9999991258082577" RangeMax="1.0000006726893065">
          0.9312930107116699 0.3147520124912262 0.18337200582027435 0.8747379779815674 -0.3326190114021301 0.3524180054664612
          0.9052910208702087 -0.3239879906177521 -0.2747359871864319 0.562358021736145 0.5866870284080505 0.5827109813690186
          0.3782399892807007 -0.189192995429039 0.9061679840087891 0.8865579962730408 0.46221500635147095 -0.019314000383019447
          0.5711290240287781 0.8025869727134705 0.17223800718784332 0.5128219723701477 -0.8532959818840027 0.09433899819850922
          0.05689999833703041 -0.8724859952926636 0.4853140115737915 0.8887580037117004 0.40740498900413513 -0.21007299423217773
          0.8814160227775574 0.2321159988641739 -0.4113740026950836 0.7909520268440247 -0.23625899851322174 -0.5644260048866272
          0.525301992893219 -0.6784719824790955 -0.5135499835014343 0.4392029941082001 -0.8473439812660217 -0.29850998520851135
          0.4076229929924011 -0.9047930240631104 -0.12326499819755554 -0.41933301091194153 0.6705179810523987 0.6120169758796692
          -0.4602459967136383 0.10090000182390213 0.8820390105247498 -0.503358006477356 0.8314669728279114 0.23514600098133087
          -0.5799779891967773 -0.5114520192146301 0.6340680122375488 0.6150810122489929 0.7605209946632385 -0.2080489993095398
          -0.19033299386501312 0.937736988067627 -0.2905550003051758 0.0048779998905956745 -0.9991289973258972 0.0414390005171299
          -0.6164389848709106 -0.7617779970169067 0.1992419958114624 0.6698020100593567 0.5014910101890564 -0.5476049780845642
          0.5576750040054321 -0.10847999900579453 -0.8229399919509888 0.19202400743961334 -0.6958569884300232 -0.6920329928398132
          0.051663998514413834 -0.9386529922485352 -0.3409709930419922 -0.5513560175895691 0.5947020053863525 0.5850939750671387
          -0.568382978439331 0.133419007062912 0.8118749856948853 -0.6188499927520752 0.7417740225791931 0.2584480047225952
          -0.6802880167961121 -0.3949190080165863 0.6174520254135132 -0.32263898849487305 0.9274380207061768 -0.18911300599575043
          -0.753807008266449 -0.6176049709320068 0.22436299920082092 0.1719750016927719 0.6420810222625732 -0.747098982334137
          0.06635600328445435 0.7293469905853271 -0.6809179782867432 -0.59067702293396 -0.7220050096511841 -0.3602910041809082
          -0.7672269940376282 -0.5843070149421692 -0.2644760012626648 0.07115600258111954 0.09772399812936783 -0.992667019367218
          -0.34171199798583984 -0.39604300260543823 -0.8522809743881226 0.17027199268341064 0.6289719939231873 0.7585530281066895
          -0.0661889985203743 -0.0749019980430603 0.9949920177459717 0.25168299674987793 0.9191619753837585 0.3029789924621582
          -0.3072490096092224 -0.7228969931602478 0.6188849806785583 0.2182070016860962 0.937237024307251 -0.2719799876213074
          -0.39835798740386963 -0.9054690003395081 0.14641200006008148 0.0171470008790493 0.5360289812088013 -0.8440250158309937
          -0.41088899970054626 -0.8539450168609619 -0.3192949891090393 -0.10785599797964096 0.15368600189685822 -0.9822160005569458
          -0.18749800324440002 0.016688000410795212 -0.9821230173110962 -0.5656350255012512 -0.3460899889469147 -0.7485179901123047
          -0.33072200417518616 -0.4555850028991699 -0.8264769911766052 0.397693008184433 0.6409919857978821 0.656482994556427
          0.23006199300289154 -0.12862199544906616 0.9646390080451965 0.4104759991168976 0.8869879841804504 0.21156999468803406
          -0.03172000125050545 -0.8144729733467102 0.579334020614624 0.28604400157928467 0.8391889929771423 -0.4625369906425476
          -0.12378700077533722 -0.9870330095291138 0.1021910011768341 -0.1506039947271347 0.14571000635623932 -0.9777969717979431
          -0.1109509989619255 -0.8641110062599182 -0.4909200072288513 -0.16954700648784637 0.03458299860358238 -0.984915018081665
          -0.016697999089956284 -0.13268700242042542 -0.9910169839859009 0.4380519986152649 0.6924960017204285 0.5732010006904602
          0.2430720031261444 -0.04087100178003311 0.9691470265388489 0.44569799304008484 0.8824530243873596 0.15043500065803528
          0.0297279991209507 -0.764339029788971 0.6441289782524109 0.39271000027656555 0.7997220158576965 -0.454118013381958
          0.032788001000881195 -0.9909409880638123 0.1302350014448166 0.1310800015926361 0.16467399895191193 -0.977599024772644
          0.09057600051164627 -0.808102011680603 -0.582036018371582 0.1282390058040619 0.12490499764680862 -0.9838460087776184
          0.19372299313545227 0.0034050000831484795 -0.9810500144958496 0.12077099829912186 0.7936279773712158 0.5962960124015808
          -0.19384700059890747 0.18167799711227417 0.964061975479126 0.21566300094127655 0.9583929777145386 0.1870110034942627
          -0.3120029866695404 -0.5664650201797485 0.7627390027046204 0.2852410078048706 0.8830329775810242 -0.3726789951324463
          -0.15651200711727142 -0.9617689847946167 0.22473099827766418 0.34937000274658203 0.35275998711586 -0.8680440187454224
          -0.035888999700546265 -0.8161230087280273 -0.5767629742622375 0.3193979859352112 0.18434999883174896 -0.9295160174369812
          0.1473120003938675 -0.06784400343894958 -0.9867609739303589 -0.5483319759368896 0.6638630032539368 0.5085449814796448
          -0.7639660239219666 0.4599269926548004 0.4525740146636963 -0.3780969977378845 0.8875679969787598 0.2631840109825134
          -0.8749639987945557 0.20404399931430817 0.43909499049186707 -0.32556700706481934 0.8994719982147217 -0.29147300124168396
          -0.8466939926147461 -0.42910298705101013 0.3146120011806488 -0.019620999693870544 0.5470460057258606 -0.8368729948997498
          -0.7138170003890991 -0.4680179953575134 -0.5209839940071106 0.08686300367116928 0.4076850116252899 -0.90898197889328
          -0.24504299461841583 0.17674000561237335 -0.953266978263855 -0.9384289979934692 0.08028600364923477 0.3360140025615692
          -0.9144020080566406 0.4047819972038269 -0.004511999897658825 -0.9306269884109497 0.17918699979782104 0.3191019892692566
          -0.7292850017547607 0.6833429932594299 0.034432001411914825 -0.8416360020637512 0.5388100147247314 -0.036497000604867935
          -0.8777199983596802 0.42429301142692566 0.22267499566078186 -0.42682600021362305 0.733601987361908 -0.5288169980049133
          -0.9597579836845398 0.28007999062538147 -0.020496999844908714 -0.3673759996891022 0.6218199729919434 -0.6916459798812866
          -0.751928985118866 0.5066210031509399 -0.4218280017375946 -0.9061570167541504 0.11046700179576874 0.4082610011100769
          -0.8602669835090637 0.381632000207901 0.3380790054798126 -0.9380390048027039 0.12564599514007568 0.32294899225234985
          -0.75102698802948 0.5579310059547424 0.35308900475502014 -0.8354300260543823 0.5154160261154175 0.19079500436782837
          -0.8244159817695618 0.4944570064544678 0.2754110097885132 -0.6251159906387329 0.7798939943313599 -0.031557001173496246
          -0.8793929815292358 0.4366700053215027 0.18970200419425964 -0.7534739971160889 0.6220970153808594 -0.2127709984779358
          -0.8871309757232666 0.4588179886341095 0.04985300078988075 -0.8288859724998474 0.4799540042877197 0.28738799691200256
          0.6270350217819214 -0.2659290134906769 0.7321940064430237 0.4976139962673187 -0.42042800784111023 0.758696973323822
          0.6710799932479858 -0.7158570289611816 0.1928730010986328 0.2712459862232208 0.6051200032234192 0.7485020160675049
          0.009850000031292439 0.03700000047683716 0.9992669820785522 0.9023669958114624 -0.09572300314903259 0.42020300030708313
          0.4215410053730011 0.8621460199356079 0.28108200430870056 0.4206160008907318 -0.6730690002441406 0.6083250045776367
          -0.21139200031757355 -0.5410109758377075 0.8140149712562561 0.9809399843215942 -0.10112100094556808 -0.165926992893219
          0.8269129991531372 -0.33559098839759827 -0.4512139856815338 0.6980559825897217 -0.5259780287742615 -0.4858649969100952
          0.5828589797019958 -0.7214789986610413 -0.37382200360298157 0.4596540033817291 -0.8762540221214294 -0.14456099271774292
          0.4032529890537262 -0.889087975025177 0.2165839970111847 0.09322399646043777 0.5490869879722595 0.8305500149726868
          -0.2366809993982315 0.07819700241088867 0.9684349894523621 0.3902980089187622 0.826790988445282 0.40507298707962036
          -0.5392280220985413 -0.5205339789390564 0.6620259881019592 0.4326289892196655 0.8179600238800049 -0.37917599081993103
          0.4869149923324585 0.797415018081665 -0.3564299941062927 -0.2867099940776825 -0.9139400124549866 0.2872459888458252
          -0.7243450284004211 -0.6706889867782593 0.15968699753284454 0.16554999351501465 0.31065401434898376 -0.9359949827194214
          0.14864400029182434 0.12394499778747559 -0.9810929894447327 0.1821269989013672 -0.14907899498939514 -0.9719079732894897
          -0.13025400042533875 -0.8409339785575867 -0.5252270102500916 0.11250899732112885 0.5714399814605713 0.8128949999809265
          -0.28016799688339233 -0.01667799986898899 0.9598060250282288 0.42783600091934204 0.8939229846000671 0.13363300263881683
          -0.5828880071640015 -0.6209790110588074 0.5240479707717896 0.43340998888015747 0.8365269899368286 -0.3352299928665161
          -0.7482579946517944 -0.6627699732780457 0.029071999713778496 0.2920210063457489 0.2887920141220093 -0.9117689728736877
          0.29208800196647644 0.3575249910354614 -0.8870519995689392 -0.6576889753341675 -0.44032299518585205 -0.6111969947814941
          -0.7279360294342041 -0.3768309950828552 -0.5728060007095337 0.11233700066804886 0.09982399642467499 -0.9886429905891418
          -0.13445399701595306 0.04067600145936012 -0.9900850057601929 0.044571999460458755 0.21151100099086761 0.9763590097427368
          -0.01893400028347969 -0.0497170016169548 0.998583972454071 0.3789370059967041 0.9128940105438232 0.15176500380039215
          -0.274495005607605 -0.6732029914855957 0.6866220235824585 0.31253600120544434 0.8508390188217163 -0.42236799001693726
          -0.5099239945411682 -0.8602169752120972 0.0019379999721422791 0.011009999550879002 0.2946639955043793 -0.9555370211601257
          -0.5011320114135742 -0.685778021812439 -0.5278019905090332 0.058605000376701355 0.08568599820137024 -0.9945970177650452
          -0.08731299638748169 0.04666199907660484 -0.9950879812240601 -0.24080100655555725 -0.005197999998927116 -0.9705610275268555
          -0.1711219996213913 -0.16320599615573883 -0.971638023853302 0.22907699644565582 0.6152880191802979 0.7542840242385864
          0.059703998267650604 0.12162400037050247 0.9907789826393127 0.412647008895874 0.8945580124855042 0.17172299325466156
          -0.22840000689029694 -0.6437069773674011 0.7303940057754517 0.4344240128993988 0.8226810097694397 -0.3667050004005432
          -0.38111498951911926 -0.9174969792366028 0.1138010025024414 0.2174289971590042 0.24670599400997162 -0.944383978843689
          -0.33288300037384033 -0.8617410063743591 -0.38287198543548584 0.02475300058722496 -0.17601199448108673 -0.984076976776123
          -0.12156199663877487 -0.49663200974464417 -0.8594059944152832 0.34943100810050964 0.9008139967918396 0.2577440142631531
          0.1072859987616539 0.2589559853076935 0.9599120020866394 0.3550400137901306 0.9338399767875671 -0.043473001569509506
          -0.12514199316501617 -0.5226699709892273 0.8432999849319458 0.3855150043964386 0.8787869811058044 -0.28126800060272217
          -0.2060379981994629 -0.9155340194702148 0.3454650044441223 0.3147430121898651 0.41873300075531006 -0.8518210053443909
          -0.1419209986925125 -0.9040799736976624 -0.40310901403427124 0.16516000032424927 -0.024790000170469284 -0.985954999923706
          0.051357001066207886 -0.4429909884929657 -0.8950539827346802 0.2710840106010437 0.5258060097694397 0.8062509894371033
          0.08365999907255173 0.18373799324035645 0.9794089794158936 0.47758400440216064 0.8066340088844299 0.3482170104980469
          0.05952699854969978 -0.20533700287342072 0.9768790006637573 0.550137996673584 0.7974029779434204 -0.24798400700092316
          0.06424999982118607 -0.8577229976654053 0.5100820064544678 0.462444007396698 0.4452599883079529 -0.7667400240898132
          0.13918299973011017 -0.8696330189704895 -0.4736739993095398 0.3745670020580292 0.15838299691677094 -0.9135720133781433
          0.32430100440979004 -0.23062899708747864 -0.9174090027809143 0.1673550009727478 0.6442490220069885 0.7462810277938843
          -0.2076749950647354 0.2870739996433258 0.9351249933242798 0.38594698905944824 0.8554220199584961 0.3453960120677948
          -0.3449389934539795 -0.2125910073518753 0.9142330288887024 0.5329849720001221 0.839119017124176 -0.10865599662065506
          -0.2577190101146698 -0.8467730283737183 0.4653570055961609 0.6692349910736084 0.5430560111999512 -0.5071640014648438
          -0.08605500310659409 -0.8584910035133362 -0.5055570006370544 0.5443400144577026 0.1514900028705597 -0.8250730037689209
          0.22741000354290009 -0.284963995218277 -0.9311710000038147 0.065652996301651 0.893983006477356 0.44326499104499817
          -0.794946014881134 0.6023719906806946 0.07217700034379959 0.38702499866485596 0.8273670077323914 0.4070329964160919
          -0.9621189832687378 -0.25207599997520447 0.10384900122880936 0.4706000089645386 0.8770610094070435 -0.09643799811601639
          -0.9150279760360718 -0.4029020071029663 0.019828999415040016 0.5046409964561462 0.6945980191230774 -0.5127090215682983
          -0.8143320083618164 -0.45552998781204224 -0.3596610128879547 0.23755599558353424 0.22120200097560883 -0.9458519816398621
          -0.4082390069961548 -0.20395299792289734 -0.8898000121116638 -0.2849220037460327 0.953993022441864 -0.09336599707603455
          -0.6552489995956421 0.3273780047893524 -0.680787980556488 -0.10210099816322327 0.9557740092277527 0.27581000328063965
          -0.8716899752616882 -0.1414009928703308 -0.4692150056362152 -0.08370400220155716 0.9924719929695129 -0.08940000087022781
          -0.978173017501831 0.008212000131607056 -0.20763100683689117 -0.2686930000782013 0.8791800141334534 -0.3935059905052185
          -0.9935979843139648 -0.031835999339818954 -0.10839899629354477 -0.6471830010414124 0.4207780063152313 -0.6356890201568604
          -0.9323340058326721 0.009115999564528465 -0.36148399114608765 -0.8815730214118958 0.4401319921016693 -0.1706240028142929
          0.862388014793396 -0.1550620049238205 0.4819149971008301 0.6171290278434753 -0.5061619877815247 0.6024550199508667
          0.7627750039100647 -0.6428589820861816 0.07004900276660919 0.36702701449394226 0.26979801058769226 0.8902249932289124
          0.10358799993991852 -0.021216999739408493 0.9943940043449402 0.973052978515625 0.01738400012254715 0.2299250066280365
          0.6394799947738647 0.6471589803695679 0.41503098607063293 0.33155301213264465 -0.8289809823036194 0.45040398836135864
          -0.13249200582504272 -0.3755500018596649 0.9172829985618591 0.998412013053894 0.04422599822282791 -0.03488999977707863
          0.9663519859313965 -0.08726400136947632 -0.24196800589561462 0.7497079968452454 -0.5043839812278748 -0.42840901017189026
          0.3886289894580841 -0.8241140246391296 -0.41207200288772583 0.2735379934310913 -0.9419789910316467 -0.1945589929819107
          0.24014699459075928 -0.9598090052604675 0.14524100720882416 0.2885130047798157 0.35117900371551514 0.8907489776611328
          0.038467999547719955 -0.14005599915981293 0.9893959760665894 0.5073180198669434 0.7569379806518555 0.41191500425338745
          -0.33939099311828613 -0.5477070212364197 0.7647420167922974 0.7147259712219238 0.6631109714508057 -0.22237500548362732
          0.5801609754562378 0.7679269909858704 -0.271479994058609 -0.3665989935398102 -0.8615490198135376 0.3511959910392761
          -0.7239959836006165 -0.6490070223808289 0.233706995844841 0.6178110241889954 0.31298699975013733 -0.7213519811630249
          0.3836430013179779 -0.02620300091803074 -0.9231100082397461 0.065699003636837 -0.36879798769950867 -0.9271849989891052
          -0.2863830029964447 -0.8306559920310974 -0.47748899459838867 0.2562600076198578 0.4931870102882385 0.8313230276107788
          -0.05723699927330017 -0.3233799934387207 0.9445369839668274 0.4192579984664917 0.8346019983291626 0.35729900002479553
          -0.3890640139579773 -0.8329610228538513 0.3934530019760132 0.449088990688324 0.8356389999389648 -0.31626901030540466
          -0.6571080088615417 -0.7533590197563171 0.025673000141978264 0.44216299057006836 0.37846899032592773 -0.8131750226020813
          0.22113299369812012 0.41492000222206116 -0.8825770020484924 -0.7457529902458191 -0.42682701349258423 -0.5115389823913574
          -0.725042998790741 -0.5173109769821167 -0.4546450078487396 0.1043810024857521 0.06838899850845337 -0.9921830296516418
          -0.32356199622154236 -0.08995500206947327 -0.9419209957122803 -0.007884000428020954 0.47382500767707825 0.8805840015411377
          -0.1804559975862503 0.18304699659347534 0.9664000272750854 0.2503899931907654 0.8931480050086975 0.3736189901828766
          -0.495745986700058 -0.5135319828987122 0.7003719806671143 0.28367799520492554 0.8806920051574707 -0.37935298681259155
          -0.5084930062294006 -0.8497639894485474 0.13905300199985504 -0.004023999907076359 0.2981719970703125 -0.9545040130615234
          -0.4439390003681183 -0.8231610059738159 -0.3540090024471283 -0.08688899874687195 0.0384100005030632 -0.995477020740509
          -0.15072700381278992 -0.11615400016307831 -0.9817280173301697 -0.39824000000953674 -0.19539399445056915 -0.8962290287017822
          -0.24799400568008423 -0.4507850110530853 -0.8574920296669006 -0.030121000483632088 0.1423639953136444 0.9893559813499451
          -0.06180199980735779 0.20679399371147156 0.9764310121536255 0.3425300121307373 0.795930027961731 0.4991680085659027
          -0.16737000644207 -0.016309000551700592 0.9857590198516846 0.45628899335861206 0.8155490159988403 -0.35592201352119446
          -0.3637939989566803 -0.8660759925842285 0.3428800106048584 0.2525309920310974 0.23322699964046478 -0.9390599727630615
          -0.2578270137310028 -0.92079097032547 -0.29269400238990784 0.03943999856710434 -0.2466769963502884 -0.9682949781417847
          -0.0952330008149147 -0.6228139996528625 -0.7765520215034485 0.12803199887275696 0.3356829881668091 0.9332330226898193
          0.0230260007083416 -0.01735999993979931 0.9995840191841125 0.3669529855251312 0.8251010179519653 0.42959699034690857
          -0.06550099700689316 -0.4028970003128052 0.9128980040550232 0.4854710102081299 0.8456019759178162 -0.22198200225830078
          -0.14037400484085083 -0.9307990074157715 0.33750399947166443 0.4653489887714386 0.4890289902687073 -0.7377679944038391
          -0.02025499939918518 -0.9516749978065491 -0.30643901228904724 0.31300899386405945 -0.07075700163841248 -0.9471110105514526
          0.13574999570846558 -0.6252179741859436 -0.7685530185699463 0.25793200731277466 0.4413610100746155 0.8594599962234497
          0.039319999516010284 0.057500001043081284 0.9975709915161133 0.4768100082874298 0.7930610179901123 0.37908700108528137
          -0.07658500224351883 -0.41545000672340393 0.9063860177993774 0.5374199748039246 0.8214669823646545 -0.1907140016555786
          -0.036024000495672226 -0.9337059855461121 0.35622501373291016 0.41659098863601685 0.5398449897766113 -0.7314500212669373
          0.1292629987001419 -0.9319009780883789 -0.33889898657798767 0.31531500816345215 0.043772999197244644 -0.9479770064353943
          0.2933019995689392 -0.5055599808692932 -0.8114079833030701 0.16943000257015228 0.376554012298584 0.910768985748291
          -0.022938000038266182 0.06806100159883499 0.9974169731140137 0.4328719973564148 0.7953270077705383 0.42435500025749207
          -0.18432800471782684 -0.2913379967212677 0.9386929869651794 0.48534899950027466 0.8345739841461182 -0.26061901450157166
          -0.30320999026298523 -0.8666089773178101 0.39629799127578735 0.2544409930706024 0.47973600029945374 -0.839709997177124
          -0.14690299332141876 -0.8728119730949402 -0.46542298793792725 0.14031900465488434 0.13610699772834778 -0.9807069897651672
          0.1165350005030632 -0.28300899267196655 -0.952010989189148 -0.1139030009508133 0.661529004573822 0.7412189841270447
          -0.23553599417209625 0.09486600011587143 0.9672250151634216 0.02033500000834465 0.9596610069274902 0.2804250121116638
          -0.569383978843689 -0.36795899271965027 0.7351250052452087 0.10510200262069702 0.9457489848136902 -0.3074299991130829
          -0.9027799963951111 -0.39002200961112976 0.1813039928674698 0.07836300134658813 0.5514100193977356 -0.8305460214614868
          -0.8775910139083862 -0.09567999839782715 -0.4697659909725189 -0.13090300559997559 0.3249169886112213 -0.9366390109062195
          -0.4819220006465912 0.2332179993391037 -0.8446069955825806 -0.6602540016174316 0.7490530014038086 0.054627999663352966
          -0.9025689959526062 0.37092700600624084 0.2185939997434616 -0.6520310044288635 0.757187008857727 -0.039030998945236206
          -0.9996050000190735 -0.017153000459074974 -0.022274000570178032 -0.6515550017356873 0.6959630250930786 -0.3018459975719452
          -0.9596490263938904 0.24940499663352966 -0.12988799810409546 -0.5680249929428101 0.44955798983573914 -0.6893799901008606
          -0.8432599902153015 0.4996980130672455 -0.19802799820899963 -0.6243039965629578 0.42828598618507385 -0.6533120274543762
          -0.7273370027542114 0.5356330275535583 -0.4290440082550049 -0.8622120022773743 0.37875598669052124 -0.3363550007343292
          0.6333460211753845 -0.08547399938106537 0.769133985042572 0.5282660126686096 -0.23326599597930908 0.8164079785346985
          0.9416210055351257 -0.2510479986667633 0.2243330031633377 -0.007201999891549349 0.45792698860168457 0.8889610171318054
          -0.2658439874649048 0.04269300028681755 0.9630699753761292 0.8740050196647644 0.19012199342250824 0.44717898964881897
          0.26547500491142273 0.8660290241241455 0.42369401454925537 0.5478060245513916 -0.34948399662971497 0.7601109743118286
          -0.29721298813819885 -0.4342840015888214 0.8503299951553345 0.9786069989204407 0.17209899425506592 -0.11274199932813644
          0.8641610145568848 -0.13755199313163757 -0.484050989151001 0.8032559752464294 -0.22964100539684296 -0.5495859980583191
          0.8233129978179932 -0.29885900020599365 -0.4825339913368225 0.7760329842567444 -0.6095929741859436 -0.1617709994316101
          0.6483790278434753 -0.6266869902610779 0.4322830140590668 -0.2089329957962036 0.44037899374961853 0.8731629848480225
          -0.4982309937477112 0.060373999178409576 0.8649399876594543 0.09645300358533859 0.9019569754600525 0.42091700434684753
          -0.6319910287857056 -0.3052079975605011 0.7123450040817261 0.375900000333786 0.8486739993095398 -0.37209099531173706
          0.1424420028924942 0.8780609965324402 -0.4568580090999603 -0.07426100224256516 -0.9208629727363586 0.382750004529953
          -0.5721200108528137 -0.7685009837150574 0.2865070104598999 0.22640599310398102 0.3318740129470825 -0.9157509803771973
          0.23600199818611145 0.012165999971330166 -0.9716770052909851 0.3343679904937744 -0.33294299244880676 -0.8816729784011841
          0.1847030073404312 -0.8974109888076782 -0.40067100524902344 -0.23633399605751038 0.17292100191116333 0.9561610221862793
          -0.44147899746894836 -0.10928600281476974 0.890591025352478 0.07234399765729904 0.8570719957351685 0.5100929737091064
          -0.6419730186462402 -0.2540389895439148 0.7234190106391907 0.2074040025472641 0.8469070196151733 -0.4896250069141388
          -0.7650619745254517 -0.608771026134491 0.20994800329208374 -0.15722399950027466 0.2565990090370178 -0.9536449909210205
          -0.01260400004684925 0.10312700271606445 -0.9945880174636841 -0.3168579936027527 -0.7557240128517151 -0.5731329917907715
          -0.6728060245513916 -0.632116973400116 -0.3843950033187866 -0.1375489979982376 0.09094700217247009 -0.9863110184669495
          -0.015182999894022942 -0.08409100025892258 -0.9963420033454895 -0.29219698905944824 -0.03414599969983101 0.9557480216026306
          -0.3968859910964966 -0.1899150013923645 0.898006021976471 0.045170001685619354 0.8184030055999756 0.5728660225868225
          -0.4632279872894287 -0.21567699313163757 0.859595000743866 0.2943840026855469 0.8776620030403137 -0.37821701169013977
          -0.5509390234947205 -0.7608720064163208 0.3428399860858917 0.29956600069999695 0.3231169879436493 -0.897695004940033
          -0.4671329855918884 -0.8690590262413025 -0.1628579944372177 -0.18682999908924103 -0.1889200061559677 -0.9640560150146484
          0.06024400144815445 -0.3075459897518158 -0.9496240019798279 -0.4007889926433563 -0.32227200269699097 -0.857617974281311
          -0.30263298749923706 -0.761309027671814 -0.5734300017356873 -0.012842999771237373 0.17641399800777435 0.9842320084571838
          -0.10588999837636948 -0.16609600186347961 0.9804080128669739 0.28495898842811584 0.8054280281066895 0.5196959972381592
          -0.1672469973564148 -0.4305090010166168 0.886955976486206 0.4378829896450043 0.8371239900588989 -0.3278439939022064
          -0.24751999974250793 -0.9007480144500732 0.3569119870662689 0.35225099325180054 0.37334901094436646 -0.8582130074501038
          -0.16619299352169037 -0.9491639733314514 -0.2673349976539612 0.2034049928188324 -0.138933002948761 -0.9691870212554932
          0.01627100072801113 -0.6529790163040161 -0.7572010159492493 0.06298500299453735 0.43852099776268005 0.8965110182762146
          -0.044241998344659805 0.038040999323129654 0.9982960224151611 0.2713640034198761 0.8640480041503906 0.42400699853897095
          -0.09624499827623367 -0.39559701085090637 0.9133679866790771 0.40921300649642944 0.8512020111083984 -0.3286319971084595
          -0.05046499893069267 -0.9105560183525085 0.4102939963340759 0.3633899986743927 0.39026498794555664 -0.845956027507782
          0.14480799436569214 -0.9063689708709717 -0.39689499139785767 0.32813799381256104 0.04569299891591072 -0.9435240030288696
          0.3137120008468628 -0.3510349988937378 -0.8822469711303711 0.08604300022125244 0.5570399761199951 0.8260170221328735
          0.04188600182533264 0.169731006026268 0.9846000075340271 0.2394219934940338 0.9003310203552246 0.363429993391037
          0.004246000200510025 -0.29600098729133606 0.9551780223846436 0.37758201360702515 0.8812270164489746 -0.2843790054321289
          0.005493999924510717 -0.8863419890403748 0.46299898624420166 0.3944140076637268 0.49751800298690796 -0.7726020216941833
          0.19279299676418304 -0.8843610286712646 -0.42513200640678406 0.38308799266815186 0.17835600674152374 -0.9063289761543274
          0.36552101373672485 -0.2514970004558563 -0.8961830139160156 0.04105599969625473 0.6343770027160645 0.7719330191612244
          -0.005692000035196543 0.24923400580883026 0.968425989151001 0.1722870022058487 0.9336379766464233 0.31406500935554504
          -0.08703699707984924 -0.23845499753952026 0.9672459959983826 0.33052998781204224 0.9093940258026123 -0.2524929940700531
          -0.12981100380420685 -0.8783090114593506 0.46013298630714417 0.38515499234199524 0.5556380152702332 -0.7368320226669312
          0.07215099781751633 -0.8732619881629944 -0.4818800091743469 0.3519670069217682 0.24101600050926208 -0.904449999332428
          0.2928619980812073 -0.18631599843502045 -0.9378259778022766 -0.3570770025253296 0.8042529821395874 0.47505098581314087
          -0.4588730037212372 0.3688960075378418 0.8083019852638245 -0.25800400972366333 0.9631630182266235 0.07583700120449066
          -0.6053680181503296 -0.17969200015068054 0.775397002696991 -0.1359339952468872 0.9138519763946533 -0.3826169967651367
          -0.6601859927177429 -0.6945549845695496 0.2859160006046295 -0.0279690008610487 0.5174040198326111 -0.8552839756011963
          -0.4733259975910187 -0.6894620060920715 -0.5482739806175232 0.006020999979227781 0.2755669951438904 -0.9612630009651184
          -0.12660999596118927 -0.06451500207185745 -0.9898520112037659 -0.6564480066299438 0.6450690031051636 -0.39110299944877625
          -0.9636139869689941 0.24357999861240387 -0.11007799953222275 -0.7733479738235474 0.5351290106773376 -0.33995500206947327
          -0.9350500106811523 -0.3543730080127716 -0.01006999984383583 -0.8153030276298523 0.3545190095901489 -0.45781800150871277
          -0.9432290196418762 -0.3071199953556061 -0.1264760047197342 -0.6807209849357605 0.1099110022187233 -0.7242509722709656
          -0.9029139876365662 -0.21495400369167328 -0.3722119927406311 -0.6371110081672668 0.12467800080776215 -0.7606210112571716
          -0.7278559803962708 0.0400330014526844 -0.684561014175415 -0.8558139801025391 -0.049616001546382904 -0.5148990154266357
          0.6713330149650574 0.20208999514579773 0.7130720019340515 0.45311400294303894 -0.2630999982357025 0.8517429828643799
          0.7874019742012024 -0.4940670132637024 0.3686400055885315 0.32013699412345886 0.5488709807395935 0.7721740007400513
          -0.04930799826979637 0.10944200307130814 0.9927690029144287 0.8378689885139465 0.37821000814437866 0.3936159908771515
          0.5417450070381165 0.7651410102844238 0.3479520082473755 0.2734200060367584 -0.7844280004501343 0.5566999912261963
          -0.19494900107383728 -0.5448390245437622 0.8155649900436401 0.8882889747619629 0.43813300132751465 0.13777700066566467