<?xml version="1.0"?>
<VTKFile type="PolyData" version="0.1" byte_order="LittleEndian" header_type="UInt32" compressor="vtkZLibDataCompressor">
  <PolyData>
    <Piece NumberOfPoints="3305" NumberOfVerts="0" NumberOfLines="0" NumberOfStrips="0" NumberOfPolys="3779">
      <PointData Normals="Normals">
        <DataArray type="Float32" Name="Normals" NumberOfComponents="3" format="ascii" RangeMin="0.9999992449105296" RangeMax="1.0000008118588761">
          0.5920799970626831 -0.014279999770224094 -0.8057529926300049 0.17848899960517883 -0.8488119840621948 -0.497653990983963
          0.40827301144599915 -0.5201640129089355 -0.7501620054244995 0.32519200444221497 -0.741582989692688 -0.5867739915847778
          0.5024840235710144 0.150409996509552 -0.851402997970581 0.8790550231933594 -0.3684130012989044 -0.30254700779914856
          0.7197920083999634 -0.21093599498271942 -0.6613669991493225 0.8005430102348328 -0.42671701312065125 -0.4207659959793091
          0.7542629837989807 -0.19065000116825104 -0.6282830238342285 0.5367119908332825 -0.645583987236023 -0.5432869791984558
          0.4264250099658966 -0.6713430285453796 -0.6061850190162659 0.2997179925441742 -0.5555989742279053 -0.7755510210990906
          0.16068300604820251 -0.4408330023288727 -0.8830900192260742 0.2227340042591095 -0.8386080265045166 -0.4971179962158203
          0.5236499905586243 -0.3520449995994568 -0.7757930159568787 -0.06499999761581421 -0.22982700169086456 -0.9710580110549927
          -0.005688999779522419 -0.8383129835128784 -0.5451589822769165 -0.0772010013461113 -0.7862629890441895 -0.6130499839782715
          -0.3584330081939697 -0.7950140237808228 -0.48936599493026733 0.1208610013127327 -0.9253010153770447 -0.3594590127468109
          0.4025290012359619 -0.7018510103225708 -0.5876870155334473 0.20940899848937988 -0.2205359935760498 -0.9526339769363403
          -0.29739299416542053 0.9514529705047607 0.07933499664068222 0.34085801243782043 -0.659633994102478 -0.6698499917984009
          0.38601699471473694 -0.818103015422821 -0.4262610077857971 0.7957950234413147 -0.5497350096702576 -0.25397300720214844
          0.6672490239143372 0.12136700004339218 -0.7348799705505371 0.7721109986305237 -0.014566999860107899 -0.6353210210800171
          0.9182199835777283 -0.3224630057811737 -0.22997799515724182 0.8308240175247192 -0.556331992149353 0.015053999610245228
          0.8354979753494263 -0.538877010345459 -0.10749699920415878 0.8879039883613586 -0.45272600650787354 -0.08163700252771378
          0.629381000995636 -0.6959180235862732 -0.3458000123500824 0.8922759890556335 -0.41637301445007324 -0.17457400262355804
          0.7313200235366821 -0.1509310007095337 -0.6651250123977661 0.7229269742965698 -0.568153977394104 -0.3931629955768585
          0.3869380056858063 -0.7986090183258057 -0.46098101139068604 0.8433719873428345 -0.11580599844455719 -0.5247020125389099
          0.47506800293922424 -0.11152199655771255 -0.8728529810905457 -0.13003499805927277 -0.1284569948911667 -0.9831529855728149
          -0.08663199841976166 -0.03658600151538849 -0.9955679774284363 0.5272729992866516 -0.02042200043797493 -0.8494499921798706
          -0.08779200166463852 -0.00011800000356743112 -0.9961389899253845 0.5170320272445679 -0.06977400183677673 -0.8531169891357422
          0.8701959848403931 -0.21911899745464325 -0.4412989914417267 -0.400983989238739 -0.5055000185966492 -0.7639909982681274
          -0.3131270110607147 -0.08969900012016296 -0.9454659819602966 -0.36176401376724243 -0.14556899666786194 -0.920835018157959
          -0.29474499821662903 -0.33948200941085815 -0.8932399749755859 0.3290669918060303 -0.463578999042511 -0.8226839900016785
          0.2669300138950348 -0.6142460107803345 -0.7425969839096069 0.5364779829978943 -0.5770180225372314 -0.6158260107040405
          -0.418599009513855 0.10281900316476822 -0.9023320078849792 -0.046824000775814056 0.008630000054836273 -0.9988660216331482
          0.3929400146007538 -0.9120690226554871 -0.11716999858617783 0.1429480016231537 -0.04595400020480156 -0.9886630177497864
          -0.41815999150276184 0.21390900015830994 -0.8828279972076416 0.11218500137329102 0.00469700014218688 -0.9936760067939758
          0.667747974395752 -0.07010400295257568 -0.7410780191421509 0.9273710250854492 -0.06592900305986404 -0.3682889938354492
          0.8313999772071838 0.21603600680828094 -0.5119590163230896 0.27010899782180786 -0.931007981300354 -0.24548999965190887
          0.8026099801063538 -0.5417829751968384 -0.24957600235939026 0.9362429976463318 0.3482480049133301 0.0466030016541481
          0.5400639772415161 -0.6402109861373901 -0.5463160276412964 0.12320099771022797 -0.6762130260467529 -0.7263320088386536
          0.8847349882125854 0.049536000937223434 -0.463454008102417 0.7685059905052185 -0.6284559965133667 -0.12017299979925156
          0.779088020324707 -0.5825039744377136 -0.2317570000886917 0.2603839933872223 -0.951308012008667 -0.16496600210666656
          0.9014649987220764 -0.32820600271224976 -0.28220900893211365 0.8463410139083862 -0.5009300112724304 -0.18104100227355957
          0.8683900237083435 -0.48585399985313416 -0.09921800345182419 0.9560739994049072 -0.0729369968175888 -0.28390800952911377
          0.6047989726066589 0.003924000076949596 -0.7963680028915405 0.917726993560791 -0.29019901156425476 -0.27122101187705994
          0.974897027015686 -0.159511998295784 0.15534600615501404 0.9563320279121399 -0.2735750079154968 -0.10288500040769577
          0.9656789898872375 0.17623700201511383 -0.19079899787902832 0.8566460013389587 -0.4624660015106201 -0.22865599393844604
          -0.6754149794578552 -0.6950989961624146 -0.24627499282360077 -0.1315629929304123 -0.8513889908790588 -0.5077679753303528
          0.5004649758338928 -0.5439479947090149 -0.6735399961471558 0.1353829950094223 -0.4752289950847626 -0.8693839907646179
          0.02973099984228611 -0.411888986825943 -0.9107490181922913 -0.02871900051832199 -0.5861819982528687 -0.8096699714660645
          -0.5516759753227234 -0.31032899022102356 -0.7741770148277283 0.31569400429725647 -0.610489010810852 -0.7263889908790588
          0.13036499917507172 -0.6935160160064697 -0.7085480093955994 -0.040998999029397964 -0.9765589833259583 -0.2113109976053238
          -0.6987450122833252 -0.2662149965763092 -0.6639919877052307 -0.572484016418457 -0.07526999711990356 -0.8164539933204651
          -0.4116770029067993 -0.01943499967455864 -0.9111220240592957 -0.36690300703048706 0.3909040093421936 -0.8441420197486877
          -0.4491640031337738 -0.11230000108480453 -0.8863639831542969 -0.4074400067329407 -0.04900199919939041 -0.9119160175323486
          -0.588703989982605 -0.0009239999926649034 -0.8083480000495911 -0.09170900285243988 0.28388500213623047 -0.9544619917869568
          0.6327499747276306 0.35030099749565125 -0.6905909776687622 -0.44693100452423096 0.1395609974861145 -0.8836150169372559
          0.6497430205345154 0.039312999695539474 -0.759136974811554 0.7269240021705627 0.0884229987859726 -0.6810010075569153
          -0.33546000719070435 0.07847599685192108 -0.9387800097465515 -0.48785001039505005 -0.21720099449157715 -0.8454740047454834
          0.9766920208930969 -0.004728999920189381 -0.2145940065383911 0.1766970008611679 -0.5805270075798035 -0.7948369979858398
          -0.3628480136394501 -0.4529460072517395 -0.8143590092658997 0.5688570141792297 -0.5815479755401611 -0.5815529823303223
          0.7039909958839417 -0.5658469796180725 -0.42920199036598206 0.3354960083961487 -0.39375901222229004 -0.855800986289978
          0.6225540041923523 -0.7518259882926941 -0.21721799671649933 0.908053994178772 0.20130500197410583 -0.36730700731277466
          0.48851099610328674 -0.6986250281333923 -0.5227620005607605 0.5659549832344055 -0.6260700225830078 -0.5364059805870056
          -0.1548510044813156 0.1045600026845932 -0.982388973236084 0.3660989999771118 0.23018500208854675 -0.901656985282898
          0.30852699279785156 0.14319700002670288 -0.9403749704360962 0.7714440226554871 0.220892995595932 -0.5967239737510681
          0.6311929821968079 -0.7707589864730835 -0.08675599843263626 0.7370650172233582 -0.5831519961357117 -0.3415690064430237
          0.5901939868927002 -0.6051740050315857 -0.5342620015144348 0.6755189895629883 -0.19748100638389587 -0.7104049921035767
          0.17507900297641754 -0.9605860114097595 -0.21592199802398682 -0.6566759943962097 -0.728996992111206 0.1932380050420761
          0.8446469902992249 -0.17933200299739838 -0.5043920278549194 0.7529850006103516 0.1553329974412918 -0.6394410133361816
          0.36487698554992676 0.9246379733085632 -0.10913100093603134 0.5405499935150146 0.7171589732170105 -0.43987300992012024
          0.9244920015335083 0.17726700007915497 -0.3374769985675812 0.9731469750404358 0.15304100513458252 -0.17193999886512756
          0.6903690099716187 0.010010999627411366 -0.7233890295028687 0.8436390161514282 -0.308665007352829 -0.4393160045146942
          0.8837839961051941 -0.31874001026153564 -0.342536985874176 0.9030129909515381 -0.0754539966583252 -0.42293599247932434
          0.3973020017147064 -0.07429900020360947 0.9146749973297119 0.43053001165390015 0.40135401487350464 0.808430016040802
          0.33037298917770386 -0.36319398880004883 0.8711739778518677 0.7302950024604797 0.6680099964141846 0.14293600618839264
          0.3544589877128601 -0.5939270257949829 0.72222501039505 -0.9609649777412415 -0.16439999639987946 -0.22252899408340454
          -0.9397010207176208 -0.1689479947090149 0.29735299944877625 -0.5868620276451111 -0.8086410164833069 -0.041143998503685
          -0.23511900007724762 -0.9045940041542053 0.3555690050125122 0.05066300183534622 -0.9928159713745117 -0.10839200019836426
          -0.22386200726032257 -0.9419999718666077 -0.2500450015068054 -0.531171977519989 -0.7610269784927368 -0.3724159896373749
          0.43643200397491455 -0.8836269974708557 0.16950300335884094 0.01621299982070923 -0.9815670251846313 0.19043000042438507
          -0.4128139913082123 -0.8720589876174927 0.26286500692367554 -0.5576339960098267 -0.8288829922676086 0.04468100145459175
          -0.6850849986076355 0.10080400109291077 -0.7214549779891968 -0.8265359997749329 -0.0032399999909102917 -0.5628740191459656
          -0.9534289836883545 -0.09067399799823761 -0.287665992975235 -0.408515989780426 -0.175136998295784 -0.8957909941673279
          -0.646477997303009 0.03467100113630295 -0.7621449828147888 0.4942629933357239 -0.1353140026330948 -0.8587160110473633
          -0.22239099442958832 0.40264299511909485 -0.8879309892654419 -0.5421280264854431 0.1602659970521927 -0.8248710036277771
          0.7588919997215271 -0.3419159948825836 -0.5542349815368652 0.07442200183868408 0.9852179884910583 -0.1542939990758896
          -0.6483799815177917 0.008655999787151814 -0.7612670063972473 -0.7306619882583618 0.06814499944448471 -0.679328978061676
          -0.7753869891166687 0.08623799681663513 -0.6255699992179871 0.2235870063304901 0.16115300357341766 -0.9612690210342407
          -0.2274640053510666 0.07241500169038773 -0.9710900187492371 -0.5013930201530457 0.3227219879627228 -0.8027799725532532
          -0.8490849733352661 -0.10914800316095352 -0.5168570280075073 -0.2539370059967041 -0.5248450040817261 -0.8124369978904724
          0.5613700151443481 -0.4330970048904419 -0.705187976360321 0.30608099699020386 -0.502780020236969 -0.8084099888801575
          -0.9143490195274353 -0.3563250005245209 -0.19235000014305115 -0.7707769870758057 -0.478532999753952 -0.42060598731040955
          -0.030559999868273735 -0.9825209975242615 0.1836259961128235 -0.2675130069255829 -0.9479010105133057 -0.1729770004749298
          -0.22500699758529663 -0.9172970056533813 -0.32853901386260986 -0.11843500286340714 -0.5288879871368408 -0.8403869867324829
          0.3144820034503937 -0.9176610112190247 -0.24289600551128387 -0.37817901372909546 -0.7863839864730835 -0.48844799399375916
          0.7861260175704956 -0.5996699929237366 -0.1496729999780655 0.8574429750442505 -0.4503909945487976 -0.24887700378894806
          0.8754910230636597 -0.18273599445819855 -0.44734999537467957 -0.010741000063717365 -0.9661059975624084 -0.2579210102558136
          0.7275739908218384 0.5102199912071228 -0.45859700441360474 0.8601120114326477 0.170305997133255 -0.4808349907398224
          0.6730009913444519 -0.6577829718589783 -0.33821800351142883 0.9764649868011475 0.21533000469207764 0.012195000424981117
          -0.05943499878048897 -0.5236049890518188 -0.8498860001564026 0.7388730049133301 -0.5697010159492493 -0.3598710000514984
          0.2994610071182251 -0.7651079893112183 -0.5700290203094482 0.7824079990386963 -0.5938910245895386 0.18743300437927246
          0.9038990139961243 0.16042199730873108 -0.39652401208877563 0.7421500086784363 0.26683399081230164 -0.6148269772529602
          0.44460999965667725 -0.6334069967269897 -0.6333379745483398 0.5114309787750244 -0.24365200102329254 -0.8240579962730408
          -0.10786399990320206 -0.9840419888496399 -0.1415179967880249 0.39124399423599243 0.18469199538230896 -0.9015640020370483
          0.45541301369667053 0.136571004986763 -0.8797429800033569 0.43447598814964294 0.5781930088996887 -0.6905959844589233
          -0.6821529865264893 -0.580564022064209 0.4445370137691498 0.8545079827308655 0.2795799970626831 -0.4377799928188324
          0.6614999771118164 0.21890999376773834 -0.7172840237617493 0.45425400137901306 0.8898400068283081 0.042886000126600266
          0.17222599685192108 0.9780420064926147 -0.11735700070858002 0.1277969926595688 0.9146829843521118 -0.383435994386673
          0.3780739903450012 0.912356972694397 0.15705199539661407 0.4410240054130554 0.6315320134162903 -0.637703001499176
          0.06466899812221527 0.8026260137557983 -0.5929669737815857 0.5221379995346069 0.19957700371742249 -0.8291810154914856
          0.8103659749031067 -0.22946299612522125 -0.539122998714447 0.676908016204834 0.12862800061702728 -0.7247419953346252
          0.8070170283317566 0.000048999998398358 -0.5905290246009827 0.5080270171165466 -0.7902979850769043 0.3425469994544983
          0.6100350022315979 0.2660680115222931 -0.7463669776916504 0.1491280049085617 0.5421140193939209 -0.8269659876823425
          -0.08449599891901016 0.04006199911236763 0.9956179857254028 -0.1943330019712448 0.08672399818897247 0.9770939946174622
          -0.024414999410510063 -0.08652999997138977 0.9959499835968018 -0.5141720175743103 0.1725340038537979 0.8401539921760559
          -0.00039999998989515007 -0.256166011095047 0.9666330218315125 0.4773930013179779 -0.770110011100769 0.4231170117855072
          0.07816299796104431 -0.5808910131454468 0.8102200031280518 0.21580100059509277 -0.972802996635437 -0.08417200297117233
          -0.9709230065345764 -0.08859100192785263 0.22239799797534943 -0.7233200073242188 -0.23405100405216217 0.6496379971504211
          -0.10937400162220001 -0.9882820248603821 0.10647200047969818 -0.31092599034309387 -0.9430090188980103 -0.11856699734926224
          0.07854100316762924 -0.9856430292129517 0.14946599304676056 0.1009719967842102 -0.9614160060882568 0.25589799880981445
          -0.3442020118236542 -0.9346339702606201 -0.08935700356960297 -0.26137998700141907 -0.9372469782829285 -0.2307559996843338
          -0.5733789801597595 -0.7961639761924744 -0.1932850033044815 0.17195600271224976 -0.9751129746437073 0.1399489939212799
          0.15132300555706024 -0.9668890237808228 0.2054930031299591 -0.5307980179786682 -0.847495973110199 -0.0021299999207258224
          -0.25193700194358826 -0.9584959745407104 0.1334650069475174 -0.7752379775047302 0.19660000503063202 -0.6002950072288513
          -0.8022109866142273 0.1967869997024536 -0.5636770129203796 -0.7575870156288147 0.2847749888896942 -0.5873370170593262
          -0.9060570001602173 -0.13184300065040588 -0.40209099650382996 -0.9466109871864319 0.04215899854898453 0.3196110129356384
          -0.9151679873466492 -0.3280450105667114 -0.23420800268650055 -0.5915250182151794 -0.7212010025978088 -0.360509991645813
          -0.19539199769496918 0.3581080138683319 -0.9130060076713562 0.7556380033493042 -0.11734200268983841 -0.6443920135498047
          0.8779299855232239 -0.20834900438785553 -0.4310790002346039 -0.5098940134048462 0.1530819982290268 -0.8465070128440857
          -0.2395389974117279 0.700842022895813 -0.6718940138816833 -0.25341498851776123 0.9286460280418396 -0.27091801166534424
          -0.7623680233955383 0.13924099504947662 -0.6319869756698608 0.7007870078086853 -0.12054499983787537 -0.703112006187439
          0.15779300034046173 0.14456599950790405 -0.9768329858779907 -0.5565320253372192 0.2716180086135864 -0.7851719856262207
          -0.8652979731559753 0.07007099688053131 -0.4963360130786896 -0.9522709846496582 0.0761289969086647 -0.2956100106239319
          -0.9495369791984558 0.17638300359249115 -0.25936201214790344 -0.1249840036034584 -0.3600020110607147 -0.9245420098304749
          -0.45878100395202637 -0.04089299961924553 -0.887607991695404 -0.5824099779129028 0.21243399381637573 -0.7846469879150391
          0.028968000784516335 -0.887099027633667 -0.46066999435424805 0.02016800083220005 -0.9642009735107422 -0.26440298557281494
          -0.2958590090274811 -0.9273639917373657 -0.22904999554157257 -0.5902109742164612 -0.7586680054664612 -0.2758159935474396
          -0.9343979954719543 -0.3276109993457794 -0.13989800214767456 -0.11581599712371826 -0.9632710218429565 0.24227100610733032
          -0.4867199957370758 -0.844618022441864 0.22298899292945862 -0.49678900837898254 -0.8532220125198364 -0.1587820053100586
          -0.6010239720344543 -0.6816779971122742 0.41723498702049255 0.3515799939632416 -0.6708099842071533 -0.6529970169067383
          0.5437870025634766 0.2744840085506439 -0.7930669784545898 -0.05303199961781502 0.2622799873352051 -0.9635339975357056
          0.62534499168396 0.29225999116897583 -0.7235519886016846 0.9683160185813904 0.10486499965190887 0.22664600610733032
          0.916467010974884 0.25822898745536804 -0.30562400817871094 0.99480801820755 0.10176499933004379 0
          0.3804379999637604 0.9120910167694092 -0.15283000469207764 -0.7862949967384338 -0.38773098587989807 -0.48104599118232727
          0.7354000210762024 -0.6565539836883545 -0.16770100593566895 0.925885021686554 0.1346679925918579 -0.3529900014400482
          0.7829520106315613 -0.5423499941825867 -0.3047010004520416 0.933434009552002 -0.3583090007305145 0.017791999503970146
          0.7465010285377502 -0.6473960280418396 0.153670996427536 0.10048999637365341 -0.9949229955673218 0.0055229999125003815
          0.5021160244941711 -0.1825219988822937 -0.8453189730644226 0.8344650268554688 -0.5403739809989929 0.10799799859523773
          -0.26774001121520996 -0.8903869986534119 0.36813798546791077 0.22069300711154938 -0.6612859964370728 0.7169340252876282
          0.1334560066461563 -0.8328719735145569 0.5371350049972534 -0.15625500679016113 -0.9871969819068909 0.03202800080180168
          0.6217880249023438 0.7815989851951599 -0.04982899874448776 0.8895570039749146 0.45248401165008545 -0.06282100081443787
          0.1808210015296936 -0.6541540026664734 -0.7344290018081665 -0.5252019762992859 -0.8506050109863281 -0.025195999071002007
          -0.10903500020503998 -0.5740399956703186 -0.8115350008010864 0.2553989887237549 -0.04939400032162666 -0.9655730128288269
          0.34717199206352234 0.816286027431488 -0.4616810083389282 -0.10362199693918228 0.44838398694992065 -0.8878139853477478
          -0.10704199969768524 0.98887699842453 -0.10326699912548065 -0.022748000919818878 0.039886001497507095 -0.9989449977874756
          -0.6021249890327454 0.13186199963092804 -0.7874370217323303 -0.046202000230550766 0.9247429966926575 0.37777701020240784
          0.5162990093231201 -0.03954099863767624 -0.8554949760437012 0.8418629765510559 -0.2093379944562912 -0.4974380135536194
          0.9605100154876709 -0.24229000508785248 0.13680300116539001 -0.6003810167312622 0.19642800092697144 -0.7752150297164917
          0.4295479953289032 0.8344100117683411 0.3453249931335449 0.3651300072669983 0.8008260130882263 -0.47471898794174194
          0.4435659945011139 0.8405280113220215 -0.31106600165367126 0.5679159760475159 0.8025000095367432 -0.1829340010881424
          0.2471649944782257 0.8024960160255432 -0.5430560111999512 0.48831498622894287 0.8505859971046448 -0.19506600499153137
          -0.0007820000173524022 0.6836850047111511 -0.7297769784927368 0.3126870095729828 0.7681710124015808 -0.5586950182914734
          0.6618210077285767 0.2997809946537018 -0.6871129870414734 0.8857370018959045 -0.1903569996356964 -0.42336100339889526
          0.6602789759635925 0.41128799319267273 -0.6283900141716003 0.6447330117225647 -0.7184619903564453 0.2610200047492981
          0.8348919749259949 0.34474700689315796 -0.4290750026702881 0.7808889746665955 0.22149500250816345 -0.5840830206871033
          0.6018630266189575 0.2760629951953888 -0.7493659853935242 0.5525689721107483 -0.7949690222740173 0.25038400292396545
          0.32853400707244873 0.30864599347114563 -0.8926380276679993 0.18870800733566284 0.288116991519928 -0.938817024230957
          -0.16737399995326996 -0.053605999797582626 0.9844350218772888 -0.24616800248622894 -0.06385699659585953 0.9671210050582886
          -0.23730699717998505 0.03411699831485748 0.9708349704742432 -0.07337100058794022 -0.08603499829769135 0.9935870170593262
          -0.30526599287986755 -0.15596100687980652 0.9394090175628662 -0.45042699575424194 -0.6411700248718262 0.6213020086288452
          -0.05042799934744835 -0.26689401268959045 0.9624059796333313 0.4908300042152405 -0.8627009987831116 -0.1217930018901825
          0.07441999763250351 -0.6110190153121948 0.7881100177764893 0.17845700681209564 -0.935135006904602 -0.30606400966644287
          0.294281005859375 -0.9400010108947754 -0.17261500656604767 -0.052622001618146896 -0.9620879888534546 -0.2676129937171936
          0.34138500690460205 -0.9397259950637817 -0.019255999475717545 0.25475698709487915 -0.6206690073013306 -0.741532027721405
          0.2276660054922104 -0.6185979843139648 -0.7520009875297546 0.5727239847183228 -0.8196759819984436 0.010879999957978725
          0.29204198718070984 -0.9564059972763062 0 -0.6146000027656555 0.45490598678588867 0.644457995891571
          -0.6082839965820312 -0.08872000128030777 0.7887459993362427 -0.6470270156860352 -0.7624210119247437 -0.008429000154137611
          0.16557100415229797 -0.9523890018463135 0.2560119926929474 -0.5586230158805847 -0.8256660103797913 0.0788469985127449
          0.4558500051498413 -0.808318018913269 0.37259000539779663 0.057826001197099686 -0.9505029916763306 0.30528900027275085
          0.1141820028424263 -0.8186140060424805 0.5628799796104431 0.2551800012588501 -0.8444200158119202 0.4709959924221039
          0.17499099671840668 -0.9649419784545898 0.1956160068511963 0.15742799639701843 -0.9872310161590576 -0.024315999820828438
          -0.40115800499916077 -0.9053400158882141 0.13939400017261505 -0.90031498670578 -0.38569000363349915 0.20168599486351013
          -0.5296030044555664 -0.8442999720573425 -0.08172000199556351 -0.3468250036239624 -0.9008640050888062 0.2610679864883423
          0.138373002409935 -0.8842930197715759 0.4459579885005951 0.46148398518562317 -0.8652629852294922 0.19583800435066223
          0.3765510022640228 -0.8992909789085388 0.22245199978351593 -0.7863789796829224 -0.15158499777317047 -0.5988579988479614
          -0.7808030247688293 0.1331309974193573 -0.6104289889335632 -0.40130698680877686 -0.42074599862098694 -0.81358802318573
          -0.21696799993515015 -0.9742469787597656 -0.061386000365018845 -0.9949259757995605 0.028342999517917633 0.09653399884700775
          -0.9274340271949768 -0.21528400480747223 -0.30580800771713257 -0.894569993019104 0.4309230148792267 -0.11853399872779846
          -0.16347000002861023 -0.5570729970932007 -0.8142150044441223 0.4438979923725128 -0.8949630260467529 0.04467099905014038
          0.20525099337100983 -0.26081201434135437 -0.9433180093765259 0.835582971572876 -0.3535209894180298 -0.42050498723983765
          0.6833450198173523 -0.3415690064430237 -0.6452670097351074 -0.30536699295043945 0.2352380007505417 -0.9227210283279419
          -0.23838399350643158 0.04206399992108345 -0.9702600240707397 -0.7300469875335693 -0.5208039879798889 -0.4424870014190674
          0.10561399906873703 0.42656001448631287 0.8982719779014587 0.27369600534439087 -0.3180429935455322 0.9077110290527344
          -0.8129919767379761 0.5666660070419312 -0.13391900062561035 -0.4303539991378784 0.25236499309539795 -0.8666639924049377
          0.26252099871635437 -0.2184009999036789 -0.9398850202560425 -0.3072650134563446 -0.03614199906587601 -0.9509369730949402
          0.5973449945449829 -0.2818189859390259 0.7508379817008972 -0.01640399917960167 -0.3601999878883362 0.9327309727668762
          -0.7478110194206238 -0.5239530205726624 0.4077410101890564 -0.19707299768924713 -0.6848049759864807 -0.7015720009803772
          0.4310019910335541 -0.6506180167198181 -0.6252470016479492 -0.7313259840011597 0.18742099404335022 -0.655771017074585
          -0.559008002281189 0.3406600058078766 -0.7559509873390198 -0.523389995098114 0.4031830132007599 -0.7506710290908813
          -0.1611430048942566 0.2193170040845871 -0.962253987789154 -0.48283299803733826 -0.666047990322113 -0.5685529708862305
          -0.6892899870872498 -0.5130559802055359 -0.5115200281143188 -0.8786759972572327 -0.3581730127334595 0.3156599998474121
          0.03978699818253517 -0.9663490056991577 -0.2541379928588867 -0.5102959871292114 -0.8131279945373535 -0.280036985874176
          -0.3615109920501709 -0.8517990112304688 -0.3791410028934479 -0.12208099663257599 -0.8643810153007507 -0.4877929985523224
          -0.16915300488471985 -0.8121809959411621 -0.5583450198173523 -0.3058600127696991 -0.9520649909973145 0.00467800023034215
          0.21706900000572205 -0.9743369817733765 0.05956900119781494 -0.8430140018463135 -0.22467300295829773 0.48872101306915283
          -0.28231701254844666 -0.612900972366333 0.7380040287971497 -0.3418459892272949 -0.891789972782135 0.29639801383018494
          -0.8125140070915222 -0.45136699080467224 0.3689039945602417 -0.3835209906101227 -0.6595630049705505 0.6464430093765259
          -0.47374698519706726 -0.5033239722251892 0.7226539850234985 0.9270899891853333 0.2470259964466095 0.2819249927997589
          0.5122339725494385 -0.522812008857727 -0.6813840270042419 -0.06103599816560745 -0.326445996761322 -0.9432430267333984
          0.7473359704017639 -0.6644260287284851 -0.0051369997672736645 -0.07859999686479568 -0.41683098673820496 -0.9055789709091187
          0.8482480049133301 -0.4100460112094879 0.3351680040359497 0.9999729990959167 0.0072929998859763145 0
          0.9248480200767517 0.1434669941663742 0.35224199295043945 0.8589329719543457 0.1773499995470047 0.48039600253105164
          0.7401379942893982 0.5656009912490845 0.3637169897556305 -0.2850329875946045 -0.07693599909543991 -0.9554250240325928
          0.187733992934227 0.030780000612139702 -0.9817379713058472 0.11333499848842621 0.203917995095253 0.9724060297012329
          -0.38514000177383423 0.026978999376296997 -0.9224640130996704 -0.3629089891910553 -0.7317659854888916 -0.5769010186195374
          -0.4528850018978119 -0.8915590047836304 0.004189999774098396 0.0074339997954666615 -0.9231899976730347 0.3842720091342926
          0.30254098773002625 0.39313599467277527 -0.8682820200920105 0.11728300154209137 0.13301299512386322 -0.9841510057449341
          -0.28324899077415466 -0.01776699908077717 -0.9588819742202759 -0.35760000348091125 -0.7343149781227112 0.5769780278205872
          -0.12312299758195877 -0.9193480014801025 0.37368398904800415 0.7798359990119934 -0.33424800634384155 -0.5292779803276062
          0.8819519877433777 -0.47133898735046387 0.0004090000002179295 0.9258340001106262 -0.32690998911857605 -0.1896349936723709
          0.8577439785003662 0.11564400047063828 -0.5009009838104248 0.8820440173149109 0.39000698924064636 -0.26437100768089294
          0.9342089891433716 0.35541900992393494 0.03053000010550022 0.833050012588501 0.3153829872608185 -0.45448899269104004
          0.4764530062675476 0.19517399370670319 -0.8572630286216736 -0.22919699549674988 -0.5857089757919312 0.7774400115013123
          -0.3996190130710602 -0.6626499891281128 0.633404016494751 -0.10174199938774109 -0.46510499715805054 0.8793900012969971
          -0.456169992685318 -0.8131179809570312 -0.36159101128578186 -0.6900060176849365 -0.6754519939422607 0.26010599732398987
          0.6784480214118958 0.5428699851036072 0.4949750006198883 0.7798720002174377 -0.15594899654388428 0.6062009930610657
          -0.17215600609779358 -0.5196520090103149 -0.8368539810180664 -0.5261480212211609 -0.8503400087356567 0.009496999904513359
          0.1036200001835823 0.9132050275802612 -0.39410600066185 0.13210000097751617 0.9002609848976135 -0.4148249924182892
          0.026859000325202942 -0.6130549907684326 -0.7895830273628235 -0.18436299264431 0.8133339881896973 0.5518140196800232
          -0.3469269871711731 0.6130390167236328 0.7098069787025452 -0.9379749894142151 0.12481000274419785 -0.3234570026397705
          0.19727300107479095 0.15064600110054016 -0.9687049984931946 0.6101369857788086 -0.33247700333595276 -0.7191609740257263
          -0.41749200224876404 0.24971500039100647 -0.8736950159072876 0.6720659732818604 -0.6909760236740112 0.26623299717903137
          0.5152530074119568 -0.43232598900794983 0.7400060296058655 -0.8370069861412048 0.21540400385856628 -0.5030109882354736
          0.5157470107078552 0.8364139795303345 -0.18551400303840637 0.5642539858818054 0.4598900079727173 -0.6856520175933838