<?xml version="1.0"?>
<VTKFile type="PolyData" version="0.1" byte_order="LittleEndian" header_type="UInt32" compressor="vtkZLibDataCompressor">
  <PolyData>
    <Piece NumberOfPoints="2627" NumberOfVerts="0" NumberOfLines="0" NumberOfStrips="0" NumberOfPolys="5250">
      <PointData Normals="Normals">
        <DataArray type="Float32" Name="Normals" NumberOfComponents="3" format="ascii" RangeMin="0.9999992510527937" RangeMax="1.000000766223037">
          -0.339262992143631 0.18130500614643097 0.9230539798736572 -0.3119739890098572 0.13514600694179535 0.9404299855232239
          -0.34063300490379333 0.18918099999427795 0.9209669828414917 -0.31722500920295715 0.07252100110054016 0.9455729722976685
          -0.3736259937286377 -0.006477000191807747 0.9275569915771484 -0.4088839888572693 0.22155800461769104 0.8852829933166504
          -0.20501700043678284 0.0634789988398552 0.9766979813575745 -0.3007659912109375 0.18208099901676178 0.9361550211906433
          -0.2990590035915375 0.026127999648451805 0.9538769721984863 -0.2965239882469177 0.1394830048084259 0.9447849988937378
          -0.3116050064563751 0.17235299944877625 0.9344499707221985 -0.33711400628089905 0.11622899770736694 0.9342619776725769
          -0.3897770047187805 0.050843000411987305 0.9195050001144409 -0.4821920096874237 -0.008225000463426113 0.87602698802948
          -0.341607004404068 0.052232999354600906 0.9383900165557861 -0.36679399013519287 0.09160900115966797 0.9257810115814209
          -0.45836499333381653 -0.01883699931204319 0.8885650038719177 -0.28908100724220276 0.006579999811947346 0.9572820067405701
          -0.15888099372386932 0.01497699972242117 0.9871839880943298 -0.2373420000076294 0.012369000352919102 0.971347987651825
          -0.27593299746513367 0.22359900176525116 0.9348070025444031 -0.26945701241493225 0.041179001331329346 0.9621319770812988
          -0.10162000358104706 0.13130299746990204 0.9861199855804443 -0.34054601192474365 0.3002980053424835 0.8909819722175598
          -0.2775129973888397 0.08457200229167938 0.956991970539093 -0.3051150143146515 0.38503000140190125 0.8710089921951294
          -0.2863669991493225 0.12536899745464325 0.9498819708824158 -0.2759369909763336 0.1735610067844391 0.9453759789466858
          -0.3795259892940521 0.28704801201820374 0.8795250058174133 -0.4170069992542267 0.36969199776649475 0.8303210139274597
          -0.4036079943180084 -0.04145200178027153 0.9139930009841919 -0.40130099654197693 0.08344600349664688 0.912136971950531
          -0.5017110109329224 0.01029799971729517 0.8649740219116211 -0.35384899377822876 -0.10868100076913834 0.9289669990539551
          -0.3539220094680786 -0.08143799751996994 0.9317229986190796 -0.4145109951496124 -0.11190299689769745 0.9031379818916321
          -0.316974014043808 -0.05466200038790703 0.9468579888343811 -0.40699100494384766 -0.06155800074338913 0.9113550186157227
          -0.43142300844192505 0.2630229890346527 0.8629559874534607 -0.46479201316833496 0.07565899938344955 0.8821809887886047
          -0.22791600227355957 0.0021639999467879534 0.9736779928207397 -0.4008150100708008 0.05671599879860878 0.9144020080566406
          -0.3807699978351593 -0.05447699874639511 0.9230639934539795 -0.18983200192451477 -0.09339399635791779 0.9773640036582947
          -0.38390401005744934 0.10230100154876709 0.9176880121231079 -0.3816649913787842 0.3041459918022156 0.8728269934654236
          -0.31175801157951355 -0.11553099751472473 0.943111002445221 -0.26076099276542664 0.20225200057029724 0.9439799785614014
          -0.31421801447868347 0.4544669985771179 0.833503007888794 -0.46511000394821167 0.4787040054798126 0.7446569800376892
          -0.2840859889984131 0.08335699886083603 0.9551680088043213 -0.3465070128440857 0.4406149983406067 0.828125
          -0.2578429877758026 0.156917005777359 0.9533590078353882 -0.1537420004606247 0.20227199792861938 0.9671859741210938
          -0.2727389931678772 0.18561500310897827 0.9440129995346069 -0.443107008934021 0.3081069886684418 0.841858983039856
          -0.41067299246788025 0.17161999642848969 0.8954859972000122 -0.2778509855270386 0.22623400390148163 0.9336040019989014
          -0.35238900780677795 0.10783399641513824 0.9296200275421143 -0.35822299122810364 0.14026600122451782 0.9230390191078186
          -0.6115139722824097 0.04453599825501442 0.7899789810180664 -0.39915400743484497 0.1012440025806427 0.9112769961357117
          -0.4758079946041107 -0.15399399399757385 0.8659629821777344 -0.5357080101966858 -0.06206599995493889 0.8421189785003662
          -0.5050560235977173 -0.048601001501083374 0.8617169857025146 -0.4538559913635254 -0.024508999660611153 0.8907380104064941
          -0.2745720148086548 -0.18992599844932556 0.9426230192184448 -0.36934301257133484 -0.01622699946165085 0.9291520118713379
          -0.43077701330184937 -0.0566909983754158 0.9006760120391846 -0.4715059995651245 0.23485900461673737 0.8500139713287354
          -0.49140799045562744 0.4297879934310913 0.7574959993362427 -0.4878549873828888 0.46775200963020325 0.7370250225067139
          -0.5759620070457458 0.4777489900588989 0.6633430123329163 -0.5137330293655396 0.08684399724006653 0.8535439968109131
          -0.5279449820518494 0.268528014421463 0.8057090044021606 -0.2005070000886917 -0.0022440000902861357 0.9796900153160095
          -0.10833600163459778 -0.14659500122070312 0.9832460284233093 -0.3585909903049469 0.002360000042244792 0.9334920048713684
          -0.412771999835968 0.053909000009298325 0.9092379808425903 -0.5905439853668213 0.20036399364471436 0.7817360162734985
          -0.2591550052165985 -0.2415499985218048 0.935142993927002 -0.07948300242424011 -0.27489298582077026 0.958184003829956
          -0.30901899933815 -0.14657600224018097 0.9396929740905762 -0.5320330262184143 0.1770319938659668 0.8280100226402283
          -0.2912290096282959 0.003843999933451414 0.9566460251808167 -0.44211500883102417 0.31231099367141724 0.8408309817314148
          -0.5710279941558838 0.47695299983024597 0.6681640148162842 -0.4893819987773895 0.5641949772834778 0.6649730205535889
          -0.21981200575828552 0.18465200066566467 0.9579070210456848 -0.13964499533176422 0.0939679965376854 0.9857329726219177
          0.04198399931192398 0.446696013212204 0.8937000036239624 0.03698499873280525 0.10673700273036957 0.993598997592926
          -0.13390299677848816 0.4318850040435791 0.8919339776039124 -0.26415398716926575 0.10126300156116486 0.9591500163078308
          -0.27533701062202454 0.3614400029182434 0.8908140063285828 -0.43948400020599365 0.36917299032211304 0.818880021572113
          -0.5355820059776306 0.2092760056257248 0.818140983581543 -0.4454599916934967 0.2213519960641861 0.8675069808959961
          -0.46337801218032837 0.18881399929523468 0.8658120036125183 -0.41495099663734436 0.27921000123023987 0.8659430146217346
          -0.39888399839401245 0.18677400052547455 0.8977789878845215 -0.26973798871040344 0.15988300740718842 0.949567973613739
          -0.15584400296211243 0.19458399713039398 0.968425989151001 -0.21403799951076508 0.24955399334430695 0.9444100260734558
          -0.2666420042514801 0.2747580111026764 0.9238020181655884 -0.2967219948768616 0.1855269968509674 0.9367690086364746
          -0.525629997253418 -0.21863199770450592 0.8221390247344971 -0.4113120138645172 -0.19988800585269928 0.8893070220947266
          -0.5555300116539001 -0.2278060019016266 0.7996820211410522 -0.49081799387931824 -0.05649999901652336 0.8694279789924622
          -0.5653730034828186 -0.025095000863075256 0.8244540095329285 -0.5313429832458496 -0.25749900937080383 0.807075023651123
          -0.5967050194740295 0.3135110139846802 0.7386839985847473 -0.52947598695755 0.4512369930744171 0.7183600068092346
          -0.44881799817085266 0.5903339982032776 0.6708710193634033 -0.6497120261192322 0.46385300159454346 0.602258026599884
          -0.5994750261306763 0.4424799978733063 0.6669639945030212 -0.6454820036888123 0.3473590016365051 0.6802170276641846
          -0.6734709739685059 0.17744599282741547 0.7175999879837036 -0.14657899737358093 -0.13429699838161469 0.9800400137901306
          -0.0896029993891716 -0.1847209930419922 0.9786980152130127 -0.009193000383675098 -0.21115300059318542 0.9774100184440613
          -0.28762999176979065 -0.19828200340270996 0.9369919896125793 -0.3882429897785187 -0.015994999557733536 0.9214180111885071
          -0.26512300968170166 -0.3102479875087738 0.9129379987716675 -0.1482750028371811 -0.3863990008831024 0.9103350043296814
          0.09500999748706818 -0.23459400236606598 0.9674389958381653 0.00813900027424097 -0.4169450104236603 0.9088950157165527
          0.1347460001707077 -0.26894399523735046 0.9536839723587036 -0.22748799622058868 -0.24332299828529358 0.942891001701355
          -0.24899500608444214 -0.003068000078201294 0.968500018119812 -0.15773199498653412 -0.17106099426746368 0.972553014755249
          -0.24132899940013885 -0.0750569999217987 0.967536985874176 -0.5316230058670044 0.2552509903907776 0.8076040148735046
          -0.5436239838600159 0.230445995926857 0.8070740103721619 -0.45111000537872314 0.2875039875507355 0.8448910117149353
          -0.5276989936828613 0.3639959990978241 0.767490029335022 -0.5151309967041016 0.4042249917984009 0.7558050155639648
          0.1148969978094101 0.3530780076980591 0.9285119771957397 0.0017430000007152557 0.6496809720993042 0.7602049708366394
          -0.1009100005030632 -0.09191899746656418 0.9906399846076965 0.1011819988489151 -0.13433800637722015 0.985755980014801
          -0.24333399534225464 0.4293000102043152 0.869763970375061 -0.20897500216960907 0.6413059830665588 0.7382789850234985
          -0.22253499925136566 -0.09380599856376648 0.9704009890556335 -0.41160300374031067 0.23748299479484558 0.8798779845237732
          -0.3070079982280731 0.408145010471344 0.859745979309082 -0.49825501441955566 0.36973100900650024 0.784246027469635
          -0.48808199167251587 0.38352999091148376 0.7840160131454468 -0.659313976764679 0.4763779938220978 0.581695020198822
          -0.5937539935112 0.31601300835609436 0.7399939894676208 -0.5544130206108093 0.4573650062084198 0.6953009963035583
          -0.5157179832458496 0.45803698897361755 0.7240419983863831 -0.5147200226783752 0.5320410132408142 0.6723060011863708
          -0.5129960179328918 0.5712820291519165 0.6406800150871277 -0.41045498847961426 0.3530130088329315 0.8407779932022095
          -0.22187800705432892 0.19599999487400055 0.9551720023155212 -0.16732099652290344 0.22252799570560455 0.9604610204696655
          -0.2908340096473694 0.21278299391269684 0.9328129887580872 -0.27996399998664856 0.3158400058746338 0.9065679907798767
          -0.2456279993057251 0.412088006734848 0.8774110078811646 -0.2730790078639984 0.3264630138874054 0.904902994632721
          -0.162540003657341 0.05698699876666069 0.9850550293922424 -0.18163500726222992 0.21371899545192719 0.9598609805107117
          -0.32770100235939026 -0.17203199863433838 0.9289870262145996 -0.5522890090942383 -0.12431100010871887 0.8243330121040344
          -0.5055909752845764 -0.1760540008544922 0.8446199893951416 -0.5754410028457642 -0.11865399777889252 0.8091899752616882
          -0.6055409908294678 -0.2873530089855194 0.7421240210533142 -0.39866000413894653 -0.2012999951839447 0.8947340250015259
          -0.5386030077934265 -0.17913700640201569 0.8232960104942322 -0.64171302318573 -0.3022240102291107 0.7048869729042053
          -0.49046599864959717 -0.18886800110340118 0.8507480025291443 -0.6442040205001831 0.13921000063419342 0.7520779967308044
          -0.6781730055809021 0.1540900021791458 0.7185660004615784 -0.5158489942550659 -0.1724119931459427 0.8391500115394592
          -0.3590410053730011 -0.29242101311683655 0.8863289952278137 -0.46760401129722595 -0.2802709937095642 0.8383280038833618
          -0.5037000179290771 0.35537999868392944 0.7873960137367249 -0.6293219923973083 0.4250420033931732 0.6506100296974182
          -0.4567059874534607 0.25323399901390076 0.8528140187263489 -0.5976880192756653 0.28158700466156006 0.7506510019302368
          -0.4922170042991638 0.49868500232696533 0.713467001914978 0.9472529888153076 0.17924700677394867 0.2656719982624054
          0.46442100405693054 0.4077509939670563 0.7861629724502563 -0.703478991985321 0.5070359706878662 0.4980280101299286
          -0.751347005367279 0.46025100350379944 0.47291299700737 -0.6060529947280884 0.26954999566078186 0.7483599781990051
          -0.625029981136322 0.34076398611068726 0.7022950053215027 -0.7699620127677917 0.33861100673675537 0.5408340096473694
          -0.03945700079202652 -0.17390799522399902 0.9839709997177124 -0.09163600206375122 -0.20312200486660004 0.9748560190200806
          -0.3516240119934082 -0.2605150043964386 0.8991619944572449 -0.14926199615001678 -0.2128089964389801 0.9656260013580322
          0.1828649938106537 -0.22624699771404266 0.9567509889602661 0.056113000959157944 -0.21399900317192078 0.9752209782600403
          0.1411460041999817 -0.18825499713420868 0.9719250202178955 -0.18493899703025818 -0.39833900332450867 0.8984010219573975
          -0.09530200064182281 -0.5502579808235168 0.8295379877090454 0.0652569979429245 -0.376691997051239 0.924036979675293
          0.2076379954814911 -0.32905399799346924 0.9211999773979187 0.10732199996709824 -0.26193198561668396 0.9591000080108643
          0.11823499947786331 -0.2299710065126419 0.9659889936447144 -0.0092550003901124 -0.060975998640060425 0.9980959892272949
          -0.09932100027799606 -0.1213660016655922 0.9876260161399841 0.05039399862289429 -0.29116401076316833 0.9553449749946594
          -0.121800996363163 -0.4322490096092224 0.8934910297393799 -0.6068699955940247 0.3997719883918762 0.686942994594574
          -0.5407800078392029 0.41565099358558655 0.7312949895858765 -0.6164010167121887 0.4881649911403656 0.6178539991378784
          -0.5037479996681213 0.5023530125617981 0.7027660012245178 -0.5577139854431152 0.6656990051269531 0.4957819879055023
          -0.11031299829483032 0.024335000663995743 0.993598997592926 -0.2453480064868927 0.5820170044898987 0.7752810120582581
          -0.05385499820113182 -0.24177399277687073 0.9688370227813721 -0.16108599305152893 -0.2586840093135834 0.9524359703063965
          -0.478536993265152 0.37525901198387146 0.7938399910926819 -0.2065799981355667 -0.15609100461006165 0.9658989906311035
          -0.40942901372909546 0.0900219976902008 0.9078900218009949 -0.3135159909725189 -0.18091300129890442 0.9321900010108948
          -0.3386929929256439 0.017165999859571457 0.9407399892807007 -0.14634299278259277 -0.16715100407600403 0.9750099778175354
          -0.4985930025577545 0.33715298771858215 0.7985820174217224 -0.40776899456977844 0.2039790004491806 0.8900099992752075
          -0.495822012424469 0.2770490050315857 0.823045015335083 -0.29926300048828125 0.39259299635887146 0.8696619868278503
          -0.46885401010513306 0.4296579957008362 0.771731972694397 -0.4510680139064789 0.3651610016822815 0.8143680095672607
          -0.4454750120639801 0.2578369975090027 0.8573629856109619 -0.26877400279045105 0.2547760009765625 0.9288970232009888
          -0.5948240160942078 0.7797380089759827 0.1954299956560135 -0.6504489779472351 0.5981500148773193 0.4681150019168854
          -0.576216995716095 0.7612130045890808 0.29753899574279785 -0.5705659985542297 0.6399120092391968 0.5147500038146973
          -0.5529760122299194 0.7537959814071655 0.3549779951572418 -0.5153480172157288 0.7495740056037903 0.4153969883918762
          -0.564005970954895 0.7633860111236572 0.314862996339798 -0.573058009147644 0.7760300040245056 0.2634040117263794
          -0.47884300351142883 0.655098021030426 0.5844280123710632 -0.38917800784111023 0.6087290048599243 0.6913679838180542
          -0.27101999521255493 0.39581099152565 0.8774290084838867 -0.19185100495815277 0.29496899247169495 0.9360479712486267
          -0.31639400124549866 0.37390801310539246 0.8718299865722656 -0.30037999153137207 0.4689520001411438 0.8305760025978088
          -0.17888200283050537 0.1575780063867569 0.9711700081825256 -0.3300139904022217 0.2235189974308014 0.9171310067176819
          -0.07270699739456177 0.2520900070667267 0.9649689793586731 0.03543800115585327 0.17955400049686432 0.9831100106239319
          0.1976899951696396 0.08224999904632568 0.9768080115318298 -0.5261420011520386 -0.36129099130630493 0.7698330283164978
          -0.5413089990615845 -0.10596500337123871 0.834119975566864 -0.5130910277366638 -0.43456798791885376 0.7401949763298035
          -0.6734930276870728 -0.18262100219726562 0.7162799835205078 -0.6605740189552307 0.07128199934959412 0.7473700046539307
          -0.46004098653793335 -0.3113900125026703 0.8315039873123169 -0.6482589840888977 -0.08723200112581253 0.7564070224761963
          -0.46363499760627747 -0.14758600294589996 0.8736479878425598 -0.6946989893913269 0.43339699506759644 0.5740730166435242
          -0.7393699884414673 0.32968801259994507 0.5870590209960938 -0.8252639770507812 0.07941699773073196 0.5591350197792053
          -0.6864809989929199 0.45579299330711365 0.5665649771690369 -0.46718400716781616 -0.2730189859867096 0.8409519791603088
          -0.32597699761390686 -0.28218400478363037 0.9022809863090515 -0.5254520177841187 -0.09147600084543228 0.845890998840332
          -0.6702539920806885 0.040681999176740646 0.7410159707069397 -0.5510690212249756 0.5927479863166809 0.5873450040817261
          -0.6043959856033325 0.36875399947166443 0.7062050104141235 -0.6446329951286316 0.5596070289611816 0.5208529829978943
          -0.583482027053833 0.35460999608039856 0.7306169867515564 -0.5592960119247437 0.7893890142440796 0.25308701395988464
          -0.5961470007896423 0.34228798747062683 0.7262560129165649 -0.6807540059089661 0.36899998784065247 0.632781982421875
          0.7515559792518616 0.2969450056552887 0.5890560150146484 -0.6148579716682434 0.35891199111938477 0.7022330164909363
          -0.4169580042362213 0.3722490072250366 0.8292019963264465 -0.646323025226593 0.45948800444602966 0.6092100143432617
          -0.7382929921150208 0.4086560010910034 0.5365859866142273 -0.722815990447998 0.6491889953613281 0.2368360012769699
          -0.6930050253868103 0.6501010060310364 0.3116289973258972 -0.8035979866981506 0.45874500274658203 0.3791860044002533
          -0.7842199802398682 0.31445199251174927 0.5349000096321106 -0.8412740230560303 0.25106900930404663 0.47877201437950134
          -0.6927260160446167 0.4050790071487427 0.5966929793357849 -0.6845129728317261 0.37496501207351685 0.6251739859580994
          -0.6526769995689392 0.5124030113220215 0.5580829977989197 -0.6491730213165283 0.38439300656318665 0.6563659906387329
          -0.7187039852142334 0.556128978729248 0.4173539876937866 -0.11742100119590759 -0.15338300168514252 0.9811660051345825
          0.0025740000419318676 -0.2821030020713806 0.9593809843063354 0.09331600368022919 -0.1703539937734604 0.9809539914131165
          -0.1303340047597885 -0.17167000472545624 0.9764950275421143 -0.28931400179862976 -0.2146880030632019 0.9328489899635315
          -0.15392999351024628 -0.29673099517822266 0.9424729943275452 -0.3210180103778839 -0.22158099710941315 0.92078697681427
          -0.13534200191497803 -0.3130219876766205 0.9400529861450195 0.13008899986743927 -0.3217659890651703 0.9378399848937988
          -0.06797800213098526 -0.628246009349823 0.77503901720047 0.09262099862098694 -0.5098159909248352 0.8552830219268799
          -0.02631399966776371 -0.679561972618103 0.7331460118293762 0.16061699390411377 -0.31622299551963806 0.9349899888038635
          0.1562819927930832 -0.3575049936771393 0.9207419753074646 0.19970199465751648 -0.2893170118331909 0.9361699819564819
          0.12713800370693207 -0.43904098868370056 0.8894259929656982 0.18628700077533722 -0.47237399220466614 0.8614869713783264
          0.14602400362491608 -0.2589089870452881 0.954800009727478 0.20774899423122406 -0.08849599957466125 0.974170982837677
          0.07118500024080276 -0.515766978263855 0.8537669777870178 -0.7441830039024353 0.34119999408721924 0.5742599964141846
          -0.6544380187988281 0.6889399886131287 0.31156599521636963 -0.6937260031700134 0.4720599949359894 0.543969988822937
          -0.5635579824447632 0.7165690064430237 0.41101300716400146 -0.5336700081825256 0.8329640030860901 0.1461780071258545
          -0.500324010848999 0.08609200268983841 0.8615480065345764 -0.47204500436782837 -0.0734499990940094 0.878508985042572
          -0.4145509898662567 0.03677599877119064 0.9092829823493958 -0.38681700825691223 0.008306999690830708 0.9221190214157104
          -0.18371999263763428 -0.10133100301027298 0.9777420163154602 0.05547599866986275 -0.2092610001564026 0.9762849807739258
          0.05615900084376335 -0.1950870007276535 0.9791769981384277 -0.43458300828933716 0.1384509950876236 0.889926016330719
          -0.1540900021791458 -0.09465599805116653 0.9835119843482971 -0.21354299783706665 0.025001000612974167 0.9766139984130859
          0.06921499967575073 -0.163115993142128 0.984175980091095 -0.32413598895072937 0.43803998827934265 0.8384850025177002
          -0.35337400436401367 0.3406060039997101 0.8712720274925232 -0.4300070106983185 0.45139598846435547 0.7818800210952759
          -0.24225999414920807 0.12619200348854065 0.9619699716567993 -0.49493300914764404 0.8673110008239746 -0.05304500088095665
          -0.5061569809913635 0.8622239828109741 0.019348999485373497 -0.504073977470398 0.8546580076217651 0.12437800318002701
          -0.5610190033912659 0.8277400135993958 0.010223999619483948 -0.55144202709198 0.8255580067634583 0.11986099928617477
          -0.45608600974082947 0.7798780202865601 0.42869099974632263 -0.469556987285614 0.6601300239562988 0.5862979888916016
          -0.5212330222129822 0.7790279984474182 0.348470002412796 -0.3083780109882355 0.5245980024337769 0.7935360074043274
          -0.4209569990634918 0.5094850063323975 0.7504799962043762 -0.44012999534606934 0.5409659743309021 0.7166879773139954
          -0.04643800109624863 0.22303099930286407 0.973704993724823 -0.17880399525165558 0.042883001267910004 0.98294997215271
          -0.06909500062465668 0.14982500672340393 0.9862949848175049 0.20437900722026825 0.1961269974708557 0.959043025970459
          0.07288199663162231 0.2242880016565323 0.9717940092086792 0.1433430016040802 0.19459599256515503 0.9703530073165894
          0.46335598826408386 0.016939999535679817 0.886011004447937 0.3049750030040741 0.13787299394607544 0.9423270225524902
          0.31516900658607483 -0.03791800141334534 0.94827800989151 0.4302789866924286 0.17773200571537018 0.8850259780883789
          -0.46985098719596863 -0.2435300052165985 0.848488986492157 -0.5723559856414795 -0.563044011592865 0.5961470007896423
          -0.585195004940033 -0.6262180209159851 0.5151680111885071 -0.587315022945404 -0.4613569974899292 0.6649900078773499
          -0.4571619927883148 -0.28706300258636475 0.8417829871177673 -0.6595699787139893 0.05638600140810013 0.7495250105857849
          -0.6371440291404724 -0.2870570123195648 0.7152940034866333 -0.5418559908866882 -0.5809230208396912 0.6073880195617676
          -0.5046679973602295 -0.28445500135421753 0.8151050209999084 -0.8500229716300964 -0.15707699954509735 0.502780020236969
          -0.7417910099029541 -0.2703210115432739 0.6137369871139526 -0.8638529777526855 -0.04582900181412697 0.5016549825668335
          -0.7796570062637329 0.475629985332489 0.4073219895362854 0.07898899912834167 0.7077370285987854 0.7020469903945923
          -0.40162599086761475 0.6655660271644592 0.6290609836578369 -0.8854439854621887 0.3006199896335602 0.35442501306533813
          -0.9553710222244263 0.06872600317001343 0.28730401396751404 -0.9459969997406006 -0.09386800229549408 0.3102869987487793
          -0.5996749997138977 0.5877479910850525 0.5430859923362732 -0.6843609809875488 -0.36386701464653015 0.631862998008728
          -0.6050400137901306 -0.4198319911956787 0.6765120029449463 -0.5185499787330627 -0.3434540033340454 0.7830359935760498
          -0.7106050252914429 -0.08022499829530716 0.6990029811859131 -0.6982060074806213 0.050415001809597015 0.714119017124176
          -0.5685989856719971 0.7415180206298828 0.35615500807762146 -0.7719600200653076 0.49577799439430237 0.3978480100631714
          -0.603896975517273 0.5673069953918457 0.5598850250244141 -0.6102359890937805 0.7815160155296326 0.12978999316692352
          -0.4751110076904297 0.878724992275238 -0.04596000164747238 -0.4729990065097809 0.8715100288391113 -0.12939000129699707
          -0.636165976524353 0.6745409965515137 0.374549001455307 -0.7124670147895813 0.539385974407196 0.44883599877357483
          -0.7101839780807495 0.316446989774704 0.6288880109786987 0.3823310136795044 0.537326991558075 0.7517330050468445
          0.7521899938583374 0.4949989914894104 0.43495500087738037 -0.7926660180091858 0.5675359964370728 0.22267299890518188
          -0.7923889756202698 0.3354659974575043 0.5094910264015198 -0.8330389857292175 0.5494890213012695 0.06408999860286713
          -0.8668389916419983 0.397691011428833 0.3007180094718933 -0.8744950294494629 0.2200009971857071 0.43227100372314453
          -0.8137109875679016 0.5173230171203613 0.2650499939918518 -0.8629909753799438 0.22679799795150757 0.45145198702812195
          -0.7424169778823853 0.6262180209159851 0.2380490005016327 -0.637099027633667 0.7397689819335938 0.21644100546836853
          -0.5796719789505005 0.803367018699646 -0.1363150030374527 0.08928699791431427 -0.35447999835014343 0.9307910203933716
          -0.022755000740289688 -0.4040290117263794 0.9144629836082458 0.09191899746656418 -0.5644090175628662 0.8203619718551636
          0.09440100193023682 -0.533270001411438 0.8406609892845154 -0.14295199513435364 -0.42986801266670227 0.8915029764175415
          -0.12180499732494354 -0.37066200375556946 0.9207460284233093 -0.12853699922561646 -0.5203269720077515 0.8442379832267761
          -0.07545900344848633 -0.6129040122032166 0.786545991897583 -0.4374139904975891 -0.20236900448799133 0.8761940002441406
          -0.24984200298786163 -0.36476200819015503 0.8969550132751465 -0.17315299808979034 -0.33142998814582825 0.9274550080299377
          -0.06860599666833878 -0.4920009970664978 0.867887020111084 -0.10169000178575516 -0.5424720048904419 0.8338959813117981
          -0.033868998289108276 -0.5751519799232483 0.8173450231552124 0.15852999687194824 -0.5212129950523376 0.8385729789733887
          0.13398900628089905 -0.6229090094566345 0.7707340121269226 0.185712993144989 -0.6447669863700867 0.7414759993553162
          0.02950499951839447 -0.6866940259933472 0.726347029209137 0.16306999325752258 -0.39127498865127563 0.9057109951972961
          0.07543899863958359 -0.5677930116653442 0.8197069764137268 0.1314840018749237 -0.32191500067710876 0.9375939965248108
          0.2052289992570877 -0.6065570116043091 0.7680950164794922 0.19194599986076355 -0.4312559962272644 0.8815749883651733
          0.22007599472999573 -0.5216990113258362 0.8242549896240234 -0.004608999937772751 -0.5867469906806946 0.8097580075263977
          0.37106600403785706 -0.39424198865890503 0.8407629728317261 0.15959100425243378 -0.5401170253753662 0.8263199925422668
          0.2309429943561554 -0.37328699231147766 0.8985109925270081 0.19260500371456146 -0.6176919937133789 0.762470006942749
          0.21079500019550323 -0.7206010222434998 0.6605290174484253 0.26081401109695435 -0.7388010025024414 0.621408998966217
          0.3088740110397339 -0.1525679975748062 0.938785970211029 0.16127100586891174 -0.38655999302864075 0.908053994178772
          0.26357200741767883 -0.25044599175453186 0.9315620064735413 0.07774099707603455 -0.5474879741668701 0.8331940174102783
          -0.5270299911499023 0.8481619954109192 0.053488001227378845 -0.5459570288658142 0.8376820087432861 -0.014832999557256699
          0.054503001272678375 -0.0677269995212555 0.996213972568512 0.2978619933128357 -0.2014870047569275 0.9331030249595642
          0.3020919859409332 -0.2041119933128357 0.9311710000038147 0.10254199802875519 -0.07999800145626068 0.9915069937705994
          0.1219329982995987 0.04829400032758713 0.991362988948822 -0.43021899461746216 0.533411979675293 0.7282739877700806
          -0.26688098907470703 0.42022499442100525 0.8672860264778137 -0.013125999830663204 0.2782619893550873 0.9604150056838989
          -0.1927189975976944 0.5906019806861877 0.7836130261421204 0.03821299970149994 0.09235300123691559 0.9949929714202881
          -0.5372499823570251 0.8420060276985168 -0.04886699840426445 -0.5704140067100525 0.8136699795722961 -0.11210999637842178
          -0.5920699834823608 0.805832028388977 0.009322999976575375 -0.5632780194282532 0.8182780146598816 0.1146249994635582
          -0.6648449897766113 0.7405819892883301 0.09756100177764893 -0.5553709864616394 0.792963981628418 0.25053998827934265
          -0.5362870097160339 0.6476500034332275 0.5412449836730957 -0.43788599967956543 0.6947330236434937 0.5706149935722351
          -0.3757520020008087 0.7274730205535889 0.5741029977798462 -0.4300979971885681 0.6785709857940674 0.5954470038414001
          -0.3573249876499176 0.8353750109672546 0.41769298911094666 0.21482700109481812 0.13781499862670898 0.9668800234794617
          0.47786399722099304 0.24920499324798584 0.8423439860343933 0.42309001088142395 0.1421319991350174 0.8948709964752197
          0.5138980150222778 0.12431000173091888 0.848796010017395 0.49734601378440857 -0.14029699563980103 0.856132984161377
          0.6214359998703003 -0.01129900012165308 0.7833830118179321 0.6844469904899597 -0.14389699697494507 0.7147210240364075
          0.6164699792861938 0.19840599596500397 0.7619709968566895 0.6907569766044617 -0.005458000116050243 0.723065972328186