<?xml version="1.0"?>
<VTKFile type="PolyData" version="0.1" byte_order="LittleEndian" header_type="UInt32" compressor="vtkZLibDataCompressor">
  <PolyData>
    <Piece NumberOfPoints="635" NumberOfVerts="0" NumberOfLines="0" NumberOfStrips="0" NumberOfPolys="1278">
      <PointData Normals="Normals">
        <DataArray type="Float32" Name="Normals" NumberOfComponents="3" format="ascii" RangeMin="0.999999279189836" RangeMax="1.0000007183095025">
          -0.610427975654602 -0.4189450144767761 0.6722080111503601 -0.742464005947113 -0.3076919913291931 0.5950400233268738
          -0.2540630102157593 -0.3663969933986664 0.895101010799408 -0.6073510050773621 0.1243010014295578 0.7846490144729614
          -0.6966440081596375 -0.5843650102615356 0.41617798805236816 -0.6573830246925354 -0.578311026096344 0.48311901092529297
          -0.7183499932289124 -0.36122000217437744 0.5945529937744141 -0.3937459886074066 -0.6865959763526917 0.6111879944801331
          -0.34778401255607605 0.20197400450706482 0.9155610203742981 -0.18996700644493103 -0.7628380060195923 0.6180539727210999
          -0.2887449860572815 -0.310932993888855 0.9055089950561523 -0.4004400074481964 0.314067006111145 0.8608189821243286
          -0.4937640130519867 -0.5424299836158752 0.6796810030937195 -0.6594210267066956 -0.21470099687576294 0.7204629778862
          -0.5492169857025146 -0.6395549774169922 0.5378950238227844 -0.5113999843597412 0.4032909870147705 0.7588329911231995
          -0.6864070296287537 0.025709999725222588 0.7267630100250244 -0.2459309995174408 -0.351949006319046 0.903132975101471
          -0.2845659852027893 -0.7060359716415405 0.6484869718551636 -0.1971130073070526 -0.5921170115470886 0.7813730239868164
          -0.1878809928894043 0.3361000120639801 0.9228960275650024 -0.15321999788284302 0.24365900456905365 0.9576820135116577
          -0.24356700479984283 -0.7454969882965088 0.6204100251197815 -0.42798298597335815 0.5569909811019897 0.7117530107498169
          -0.2099130004644394 0.7052819728851318 0.677137017250061 -0.5913310050964355 -0.3357880115509033 0.7331939935684204
          -0.29296499490737915 0.03831100091338158 0.9553549885749817 -0.7246320247650146 0.2757369875907898 0.6315670013427734
          -0.5996220111846924 0.38254600763320923 0.7029309868812561 -0.7695879936218262 -0.3365660011768341 0.542639970779419
          -0.8952909708023071 -0.30313798785209656 0.32643699645996094 -0.2759439945220947 0.8213120102882385 0.4993009865283966
          -0.30141401290893555 0.8031949996948242 0.5138350129127502 -0.11755400151014328 -0.1871809959411621 0.9752659797668457
          -0.23733900487422943 -0.48716500401496887 0.8404409885406494 -0.5038560032844543 -0.518638014793396 0.6907560229301453
          -0.3650040030479431 -0.6508070230484009 0.6657490134239197 0.0833050012588501 0.6837329864501953 0.7249619960784912
          -0.23040999472141266 0.2908650040626526 0.9286059737205505 -0.23424500226974487 -0.09216500073671341 0.9677990078926086
          -0.3575190007686615 0.044975001364946365 0.9328219890594482 -0.4839920103549957 -0.305400013923645 0.8200500011444092
          -0.6418939828872681 -0.13210399448871613 0.7553290128707886 -0.6751360297203064 -0.05999099835753441 0.7352499961853027
          -0.7093539834022522 0.09998299926519394 0.6977260112762451 -0.7461090087890625 -0.3749389946460724 0.5502189993858337
          -0.43935999274253845 0.7538930177688599 0.4884740114212036 -0.951816976070404 0.23851600289344788 0.19275499880313873
          -0.9753710031509399 -0.09272699803113937 -0.2001349925994873 -0.9795950055122375 0.083126001060009 -0.18298399448394775
          -0.9455350041389465 -0.24996699392795563 0.20851799845695496 -0.6239539980888367 -0.43303200602531433 0.6505110263824463
          -0.13519400358200073 0.9565640091896057 0.2582780122756958 0.0022559999488294125 0.9550480246543884 0.29644298553466797
          -0.2593109905719757 0.9390329718589783 0.22577500343322754 -0.362949013710022 -0.20676299929618835 0.9085800051689148
          -0.1354209929704666 -0.05110999941825867 0.9894689917564392 -0.5893430113792419 -0.34372198581695557 0.7311149835586548
          -0.47017401456832886 -0.5221160054206848 0.7115690112113953 0.22829900681972504 0.7894790172576904 0.5697389841079712
          -0.013957999646663666 0.5894950032234192 0.8076519966125488 0.05742799863219261 0.9609709978103638 0.27062100172042847
          -0.2501800060272217 -0.41403400897979736 0.8752059936523438 0.008597999811172485 0.47658199071884155 0.8790879845619202
          -0.6504870057106018 -0.38362500071525574 0.6555140018463135 -0.8627529740333557 -0.3711389899253845 0.3433850109577179
          -0.26533401012420654 -0.5653550028800964 0.7810069918632507 -0.873661994934082 -0.34123700857162476 0.3468030095100403
          -0.5568950176239014 0.7888079881668091 0.2600969970226288 -0.9682040214538574 -0.038169000297784805 -0.24723300337791443
          -0.9393659830093384 -0.08170299977064133 -0.3330399990081787 -0.9039099812507629 0.2965970039367676 -0.3081839978694916
          -0.7315829992294312 0.6662399768829346 -0.14460599422454834 -0.9414520263671875 -0.26329201459884644 -0.21058399975299835
          -0.8134400248527527 -0.5815730094909668 -0.009438999928534031 0.06811600178480148 0.9789789915084839 0.19224800169467926
          0.19016900658607483 0.9261000156402588 0.32584500312805176 0.1879899948835373 0.960739016532898 0.20405900478363037
          -0.45557698607444763 0.8875240087509155 0.06892400234937668 -0.19501599669456482 0.9752439856529236 0.10425099730491638
          -0.03388199955224991 0.9952589869499207 0.09117300063371658 -0.2739729881286621 -0.07917899638414383 0.9584720134735107
          -0.09412600100040436 -0.1925159990787506 0.976768970489502 -0.1694989949464798 -0.625694990158081 0.761430025100708
          -0.3315789997577667 -0.0917150005698204 0.938959002494812 -0.21857400238513947 -0.5878660082817078 0.7788709998130798
          0.009049000218510628 -0.5564619898796082 0.8308240175247192 -0.28502199053764343 -0.5120729804039001 0.8102740049362183
          -0.18914000689983368 -0.31809699535369873 0.9290000200271606 0.2848320007324219 0.8972100019454956 0.3374690115451813
          0.18626700341701508 0.9415169954299927 0.28080201148986816 0.23977799713611603 0.8655920028686523 0.4396109879016876
          0.17479999363422394 0.7285460233688354 0.6623179912567139 0.04728100076317787 0.9961839914321899 0.07336399704217911
          0.057534001767635345 0.06544800102710724 0.9961959719657898 0.09930200129747391 0.27236801385879517 0.9570549726486206
          -0.8983719944953918 0.22087199985980988 -0.37966200709342957 -0.87807297706604 0.000775999971665442 -0.4785259962081909
          -0.7615010142326355 -0.37948301434516907 -0.5254619717597961 0.18769200146198273 0.9499080181121826 0.24989399313926697
          0.14627300202846527 0.9657840132713318 0.2141609936952591 -0.47375398874282837 0.8745650053024292 -0.10341300070285797
          -0.3093329966068268 0.9498630166053772 -0.045531000941991806 -0.0343950018286705 0.9895300269126892 0.14016899466514587
          0.08076699823141098 0.9910849928855896 0.10596299916505814 -0.08434200286865234 0.9930840134620667 0.08167999982833862
          0.040727999061346054 0.988457977771759 0.14591999351978302 -0.1496880054473877 0.9886469841003418 0.013059999793767929
          0.06278599798679352 -0.9363399744033813 0.3454340100288391 0.39194801449775696 -0.7068970203399658 0.5887899994850159
          0.2898609936237335 0.8927339911460876 0.34497299790382385 0.285521000623703 0.9243410229682922 0.2531220018863678
          0.16032199561595917 0.9638620018959045 0.21275800466537476 0.04132499918341637 0.9822099804878235 0.18318399786949158
          0.35497498512268066 0.8546800017356873 0.3788340091705322 0.36017701029777527 0.7362819910049438 0.5728539824485779
          0.324196994304657 0.4878779947757721 0.8104760050773621 -0.8145509958267212 -0.5800480246543884 0.007046999875456095
          -0.7168099880218506 -0.6035169959068298 -0.34921398758888245 -0.6990039944648743 -0.6384760141372681 -0.3220910131931305
          -0.45692500472068787 -0.8275309801101685 0.32620900869369507 -0.3872919976711273 -0.8997870087623596 0.2009669989347458
          -0.6876689791679382 -0.704289972782135 0.17631399631500244 -0.7653229832649231 0.46063899993896484 -0.44954800605773926
          -0.8028150200843811 0.2874450087547302 -0.522363007068634 -0.7692970037460327 -0.002259999979287386 -0.6388869881629944
          -0.7749130129814148 -0.2177789956331253 -0.5933640003204346 -0.63332599401474 0.6898059844970703 -0.3508070111274719
          -0.6154289841651917 -0.39698800444602966 -0.6809170246124268 -0.6777769923210144 -0.4975399971008301 -0.5413619875907898
          0.08224000036716461 0.9802709817886353 0.17973899841308594 -0.41873300075531006 0.8856490254402161 -0.2007180005311966
          -0.19202099740505219 0.9778289794921875 0.08354000002145767 -0.4618780016899109 0.8539339900016785 -0.23971900343894958
          -0.19396300613880157 -0.898747980594635 0.39323100447654724 0.024234000593423843 -0.9795680046081543 0.19964900612831116
          0.2875230014324188 -0.9440889954566956 0.16132600605487823 0.3238050043582916 -0.9433519840240479 0.07237499952316284
          0.5270630121231079 -0.7800719738006592 0.33718401193618774 0.29763099551200867 -0.508895993232727 0.8077380061149597
          0.12672899663448334 -0.3926059901714325 0.9109339714050293 0.5688599944114685 -0.7047550082206726 0.4239319860935211
          0.5332670211791992 -0.5936790108680725 0.602636992931366 0.37782201170921326 0.8819209933280945 0.28189799189567566
          0.3216469883918762 0.9002760052680969 0.29333800077438354 0.2602739930152893 0.930404007434845 0.25807899236679077
          0.5024759769439697 0.5794289708137512 0.6417009830474854 0.46891701221466064 0.770684003829956 0.4314649999141693
          0.4501039981842041 0.26716500520706177 0.8520730137825012 0.22866399586200714 0.021486999467015266 0.9732679724693298
          -0.743336021900177 -0.5828440189361572 -0.3282429873943329 -0.5271139740943909 -0.5905240178108215 -0.6110910177230835
          -0.6166960000991821 -0.779990017414093 -0.1063150018453598 -0.10592199862003326 -0.9884989857673645 0.10793399810791016
          -0.7451769709587097 0.3372719883918762 -0.5752890110015869 -0.6955950260162354 0.3503899872303009 -0.6271950006484985
          -0.7069680094718933 0.037199001759290695 -0.7062669992446899 -0.6636750102043152 0.5772960186004639 -0.47567299008369446
          -0.5753189921379089 0.7177940011024475 -0.3921479880809784 -0.5407000184059143 -0.39572200179100037 -0.742326021194458
          -0.5760080218315125 -0.3422969877719879 -0.7423250079154968 -0.5740969777107239 -0.5494610071182251 -0.6070470213890076
          0.23518800735473633 0.9146900177001953 0.3286759853363037 0.022964999079704285 0.9684910178184509 0.24798600375652313
          0.010141000151634216 0.9814479947090149 0.19145800173282623 -0.24105900526046753 0.9694219827651978 0.04594999924302101
          -0.64239901304245 0.6420999765396118 -0.4183669984340668 -0.5859659910202026 0.698170006275177 -0.4113430082798004
          -0.6906470060348511 0.46703600883483887 -0.5521630048751831 0.2532539963722229 -0.9662889838218689 -0.046355001628398895
          0.37579798698425293 -0.847046971321106 0.37588199973106384 0.5108619928359985 -0.852882981300354 -0.10774900019168854
          0.5251089930534363 -0.8352270126342773 0.16326600313186646 0.5822150111198425 -0.8091959953308105 0.07891000062227249
          0.6216279864311218 -0.31011301279067993 0.719310998916626 0.535735011100769 -0.056807998567819595 0.8424729704856873
          0.7926179766654968 -0.17898400127887726 0.5828559994697571 0.38721001148223877 0.863798975944519 0.32236701250076294
          0.4738680124282837 0.8237829804420471 0.31117698550224304 0.357230007648468 0.8790590167045593 0.3156599998474121
          0.2890389859676361 0.8953670263290405 0.33878400921821594 0.49370598793029785 0.7521589994430542 0.4364759922027588
          0.6250370144844055 0.5056689977645874 0.5946660041809082 0.612188994884491 0.33252400159835815 0.7173929810523987
          -0.45660799741744995 -0.7649059891700745 -0.4543449878692627 -0.52469801902771 -0.5425950288772583 -0.6559590101242065
          -0.3017059862613678 -0.621222972869873 -0.723226010799408 -0.3277919888496399 -0.5515360236167908 -0.7670469880104065
          -0.25407499074935913 -0.9360640048980713 -0.24337199330329895 -0.062442000955343246 -0.9792770147323608 -0.19265900552272797
          -0.677075982093811 0.45341700315475464 -0.5796390175819397 -0.6588559746742249 0.23984499275684357 -0.7130100131034851
          -0.6587049961090088 0.06711799651384354 -0.7494019865989685 -0.4145439863204956 -0.4788689911365509 -0.7738459706306458
          -0.5294659733772278 -0.4653860032558441 -0.7092819809913635 -0.48852500319480896 -0.3894299864768982 -0.7808250188827515
          0.1423649936914444 0.9208580255508423 0.362978994846344 0.0012100000167265534 0.9584730267524719 0.2851789891719818
          -0.028648000210523605 0.9624639749526978 0.2698949873447418 -0.6837210059165955 0.2823539972305298 -0.6729050278663635
          -0.6575610041618347 0.46327200531959534 -0.5941320061683655 -0.4983240067958832 0.81734299659729 -0.2891770005226135
          -0.6762920022010803 0.22846299409866333 -0.7003099918365479 0.09377899765968323 -0.9856950044631958 -0.14003600180149078
          0.3693050146102905 -0.8688510060310364 -0.3297150135040283 0.36315199732780457 -0.8489779829978943 -0.3838709890842438
          0.4723910093307495 -0.8447409868240356 -0.2515139877796173 0.6530050039291382 -0.7537680268287659 0.07361199706792831
          0.5728830099105835 -0.8107010126113892 -0.12070199847221375 0.810122013092041 -0.45392298698425293 0.37102100253105164
          0.8737229704856873 -0.09605800360441208 0.47684499621391296 0.35619500279426575 0.8568789958953857 0.3726710081100464
          0.3102149963378906 0.8636050224304199 0.39743301272392273 0.31243398785591125 0.8399059772491455 0.4437829852104187
          0.6787400245666504 0.49449101090431213 0.542946994304657 0.5192999839782715 0.7126619815826416 0.47163599729537964
          0.3669950067996979 0.8471789956092834 0.38419198989868164 0.7511029839515686 0.17734700441360474 0.6359189748764038
          -0.2999649941921234 -0.7627490162849426 -0.5729169845581055 -0.1474190056324005 -0.7745140194892883 -0.6151390075683594
          -0.3089990019798279 -0.5140569806098938 -0.8001660108566284 -0.2622160017490387 -0.576179027557373 -0.7741190195083618
          -0.2435240000486374 -0.5560380220413208 -0.7946810126304626 -0.194705992937088 -0.574101984500885 -0.7952960133552551
          -0.10725899785757065 -0.9214209914207458 -0.37346699833869934 0.11537099629640579 -0.9179790019989014 -0.3794800043106079
          -0.5985890030860901 -0.06856899708509445 -0.7981160283088684 -0.47402098774909973 -0.44637900590896606 -0.7589790225028992
          -0.33089199662208557 -0.5742949843406677 -0.7487959861755371 0.08193200081586838 0.9262620210647583 0.36786699295043945
          0.35468098521232605 0.8127359747886658 0.4622350037097931 0.29097700119018555 0.8273400068283081 0.48045799136161804
          -0.022088000550866127 0.9469299912452698 0.32067999243736267 0.030827999114990234 0.9497680068016052 0.3114340007305145
          -0.0294599998742342 0.9535470008850098 0.29979899525642395 -0.3939270079135895 0.9086999893188477 -0.13815200328826904
          -0.1625169962644577 0.9732829928398132 0.16220100224018097 -0.6636360287666321 0.2501029968261719 -0.705007016658783
          -0.6435710191726685 -0.009690999984741211 -0.7653250098228455 -0.623769998550415 0.6148369908332825 -0.48258399963378906
          -0.6688780188560486 0.37033501267433167 -0.644556999206543 0.28651300072669983 -0.8357449769973755 -0.4684459865093231
          0.5318400263786316 -0.8288990259170532 -0.17341600358486176 0.3490599989891052 -0.8672860264778137 -0.3549250066280365
          0.595969021320343 -0.7959709763526917 -0.10607200115919113 0.8216239809989929 -0.5524010062217712 0.14066800475120544
          0.8357629776000977 0.16025200486183167 0.5251849889755249 0.39805299043655396 0.8106489777565002 0.42941999435424805
          0.23372699320316315 0.8601679801940918 0.4533019959926605 0.1718290001153946 0.8940820097923279 0.41363298892974854
          0.7255330085754395 0.4563319981098175 0.5151339769363403 -0.21257300674915314 -0.6185510158538818 -0.756443977355957
          -0.19657699763774872 -0.5963950157165527 -0.7782490253448486 0.047352999448776245 -0.7407519817352295 -0.6701070070266724
          0.1257999986410141 -0.8559060096740723 -0.5015959739685059 -0.43017300963401794 -0.5612760186195374 -0.7070509791374207
          -0.3000139892101288 -0.6437079906463623 -0.7040110230445862 0.2101150006055832 0.8592849969863892 0.4663490056991577
          0.31004199385643005 0.8030830025672913 0.508853018283844 -0.09449999779462814 0.9544479846954346 0.28301599621772766
          0.07355300337076187 0.9176009893417358 0.39063701033592224 0.08611200004816055 0.9411849975585938 0.3267360031604767
          0.07218199968338013 0.9624350070953369 0.2617419958114624 -0.16730499267578125 0.9838280081748962 0.06396900117397308
          -0.16468100249767303 0.9729030132293701 0.16229699552059174 -0.6684610247612 0.18404999375343323 -0.720615029335022
          -0.6849880218505859 0.4846619963645935 -0.5439620018005371 -0.7141039967536926 0.17788800597190857 -0.6770610213279724
          0.2699959874153137 -0.8508440256118774 -0.4507400095462799 0.21695199608802795 -0.8239849805831909 -0.5234310030937195
          0.5664269924163818 -0.8150320053100586 -0.12199600040912628 0.5062000155448914 -0.8492429852485657 -0.15015800297260284
          0.5400689840316772 -0.8366190195083618 -0.09162600338459015 0.3219969868659973 -0.8916000127792358 -0.31838199496269226
          0.16475600004196167 -0.839896023273468 -0.5171369910240173 0.9203330278396606 -0.15454599261283875 0.35930898785591125
          0.7239760160446167 -0.6896560192108154 0.015292000025510788 0.9027259945869446 -0.33288198709487915 0.2725349962711334
          0.8749009966850281 0.07563699781894684 0.47835901379585266 0.8488180041313171 0.20636700093746185 0.4867449998855591
          0.7357710003852844 0.438060998916626 0.5164719820022583 0.36062198877334595 0.8067399859428406 0.4681040048599243
          0.14541800320148468 0.9020659923553467 0.40636199712753296 0.34316200017929077 0.7933300137519836 0.5028579831123352
          0.8236269950866699 0.2730169892311096 0.49709099531173706 0.6769779920578003 0.46850401163101196 0.5676310062408447
          -0.0910319983959198 -0.7727950215339661 -0.6280930042266846 -0.03994699940085411 -0.6654390096664429 -0.7453830242156982
          0.015416000038385391 -0.7166299819946289 -0.6972839832305908 0.10898900032043457 -0.7311829924583435 -0.6734189987182617
          -0.6501209735870361 -0.10836300253868103 -0.7520639896392822 -0.5428580045700073 -0.37541601061820984 -0.7512440085411072
          -0.43726399540901184 -0.5654199719429016 -0.6993569731712341 -0.37091198563575745 -0.6447209715843201 -0.66839998960495
          -0.22633999586105347 -0.7568560242652893 -0.6131389737129211 0.30450400710105896 0.7960789799690247 0.523006021976471
          -0.07142200320959091 0.9451109766960144 0.31884700059890747 0.2101220041513443 0.8524829745292664 0.4786669909954071
          -0.059477999806404114 0.9617270231246948 0.26747798919677734 -0.3190299868583679 0.9477310180664062 0.005125000141561031
          -0.4623369872570038 0.8340799808502197 -0.30092400312423706 -0.6513100266456604 0.5953140258789062 -0.4705280065536499
          -0.733942985534668 0.3009749948978424 -0.6088860034942627 -0.6698499917984009 -0.038679998368024826 -0.741487979888916
          -0.7124450206756592 0.07216600328683853 -0.6980069875717163 0.1490900069475174 -0.7952470183372498 -0.5876680016517639
          0.44969698786735535 -0.8732420206069946 -0.18767400085926056 0.16208399832248688 -0.890529990196228 -0.42507100105285645
          -0.006178000010550022 -0.857774019241333 -0.5139899849891663 0.9237620234489441 -0.08340899646282196 0.37377500534057617
          0.8650599718093872 0.1601330041885376 0.47542500495910645 0.8782899975776672 -0.44720399379730225 0.16916200518608093
          0.897288978099823 -0.3628230094909668 0.251459002494812 0.800320029258728 0.3218809962272644 0.5058469772338867
          0.33767399191856384 0.8088549971580505 0.4813840091228485 0.15710000693798065 0.8991119861602783 0.4085550010204315
          0.2290409952402115 0.842182993888855 0.4881269931793213 0.8485950231552124 0.18942999839782715 0.4939660131931305
          0.916841983795166 -0.20282499492168427 0.34389200806617737 -0.09244699776172638 -0.824455976486206 -0.5583239793777466
          -0.46263501048088074 -0.5094130039215088 -0.7255809903144836 -0.37219199538230896 -0.6452959775924683 -0.6671329736709595
          -0.33469799160957336 -0.6690639853477478 -0.6635739803314209 -0.1977279931306839 -0.786566972732544 -0.5849930047988892
          -0.06735199689865112 -0.835906982421875 -0.5447229743003845 0.37512099742889404 0.7350299954414368 0.5648149847984314
          0.21603000164031982 0.8267729878425598 0.5194010138511658 -0.1595270037651062 0.9389410018920898 0.30485999584198
          0.03857399895787239 0.8698940277099609 0.4917280077934265 0.28336599469184875 0.8005560040473938 0.5280290246009827
          -0.3130359947681427 0.9195550084114075 0.23754599690437317 -0.6710780262947083 0.6580430269241333 -0.34151598811149597
          -0.7252640128135681 0.17499500513076782 -0.6658599972724915 -0.6000369787216187 -0.2277030050754547 -0.7668820023536682
          -0.6495329737663269 -0.14325599372386932 -0.7467160224914551 0.7564830183982849 -0.653918981552124 0.011099999770522118
          0.6899769902229309 -0.723056972026825 0.03347399830818176 0.5485759973526001 -0.8339750170707703 -0.059592001140117645
          0.30725300312042236 -0.9201400279998779 -0.24277299642562866 0.08069399744272232 -0.9042789936065674 -0.41924700140953064
          0.8831040263175964 -0.4432780146598816 0.15372799336910248 0.6635159850120544 0.5370039939880371 0.5209360122680664
          0.907505989074707 -0.04249100014567375 0.4178839921951294 0.4460029900074005 0.773052990436554 0.45107701420783997
          0.2009260058403015 0.8885859847068787 0.4123629927635193 0.23808400332927704 0.890841007232666 0.3869349956512451
          0.9178069829940796 -0.22572000324726105 0.3266189992427826 0.8537819981575012 -0.5021929740905762 0.13732899725437164
          -0.24131399393081665 -0.7292940020561218 -0.6402320265769958 -0.39744600653648376 -0.5902950167655945 -0.7025589942932129
          0.09393899887800217 -0.8988670110702515 -0.4280349910259247 0.16607800126075745 -0.9159809947013855 -0.3652360141277313
          0.23338299989700317 0.7900639772415161 0.5668609738349915 -0.11182600259780884 0.9124069809913635 0.39371201395988464
          -0.1980070024728775 0.9137899875640869 0.35465699434280396 -0.16987599432468414 0.8952990174293518 0.4118039906024933
          -0.7586299777030945 0.30109500885009766 -0.5777729749679565 -0.657181978225708 0.552386999130249 -0.5128160119056702
          -0.6349319815635681 0.7626420259475708 -0.1234470009803772 -0.5360190272331238 0.8340619802474976 -0.13047899305820465
          -0.6567969918251038 -0.1614850014448166 -0.7365729808807373 -0.527895987033844 -0.384223997592926 -0.757427990436554
          -0.5315309762954712 -0.4014909863471985 -0.7458410263061523 0.7003470063209534 -0.710955023765564 0.06369899958372116
          0.799875020980835 -0.5837460160255432 0.13942700624465942 0.5051850080490112 -0.8561279773712158 -0.10878600180149078
          0.23529699444770813 -0.9088330268859863 -0.34446701407432556 0.7840679883956909 0.3098190128803253 0.5378199815750122
          0.8584070205688477 -0.2886489927768707 0.4240500032901764 0.8788620233535767 -0.39835700392723083 0.26251500844955444
          0.8338540196418762 -0.4584699869155884 0.30739501118659973 0.6163640022277832 0.6009969711303711 0.5088210105895996
          0.32242700457572937 0.7971720099449158 0.5104479789733887 0.3175339996814728 0.8058159947395325 0.49983298778533936
          -0.23698599636554718 -0.7237449884414673 -0.6480979919433594 -0.39062198996543884 -0.5833079814910889 -0.7121559977531433
          -0.2772260010242462 -0.7005429863929749 -0.6575599908828735 -0.45831501483917236 -0.5212039947509766 -0.7199270129203796
          -0.011374000459909439 -0.8617579936981201 -0.5071920156478882 -0.2271679937839508 -0.7332170009613037 -0.6409270167350769
          0.3022420108318329 0.7528409957885742 0.5847060084342957 -0.37636300921440125 0.8755300045013428 0.30298200249671936
          -0.24596799910068512 0.9025539755821228 0.35340601205825806 -0.6859080195426941 0.7276729941368103 -0.004639000166207552
          0.00228599994443357 0.8403099775314331 0.5421010255813599 0.08969300240278244 0.8321959972381592 0.5471789836883545
          0.14612199366092682 0.7704300284385681 0.6205530166625977 -0.22959400713443756 0.875415027141571 0.4253639876842499
          -0.8198300004005432 0.09602600336074829 -0.5644980072975159 -0.6879910230636597 -0.12208200246095657 -0.7153769731521606
          -0.4994159936904907 -0.458840012550354 -0.7348809838294983 -0.5975340008735657 -0.2954379916191101 -0.74543297290802
          0.782833993434906 -0.5911080241203308 0.19432500004768372 0.6919999718666077 -0.7127199769020081 0.11474300175905228
          0.5260559916496277 -0.8447819948196411 -0.09802400320768356 0.8377659916877747 0.10148700326681137 0.536516010761261
          0.8628159761428833 -0.16048699617385864 0.4793660044670105 0.8145110011100769 -0.19688299298286438 0.5457190275192261
          0.7697489857673645 -0.5954629778862 0.23002299666404724 0.436957985162735 0.6880980134010315 0.5793009996414185
          0.34764400124549866 0.7135649919509888 0.6082509756088257 0.29101499915122986 0.7075369954109192 0.6439740061759949
          -0.46509799361228943 -0.4733319878578186 -0.7480909824371338 -0.37675100564956665 -0.5774000287055969 -0.72434002161026
          -0.202115997672081 -0.7491239905357361 -0.6308419704437256 0.1576399952173233 -0.8977289795875549 -0.41137799620628357
          -0.3811210095882416 0.8209549784660339 0.4251820147037506 -0.6319829821586609 0.7576630115509033 0.16292400658130646
          -0.8629580140113831 0.4296869933605194 -0.2658439874649048 0.24571800231933594 0.7228549718856812 0.6458349823951721
          0.10984200239181519 0.8131870031356812 0.5715439915657043 0.05995599925518036 0.7441930174827576 0.6652680039405823
          -0.1163640022277832 0.8283489942550659 0.5479949712753296 0.013585999608039856 0.832889974117279 0.5532709956169128
          0.0808660015463829 0.8298349976539612 0.5521180033683777 0.20297400653362274 0.6453719735145569 0.736407995223999
          -0.04355999827384949 0.7611770033836365 0.6470800042152405 0.08802299946546555 0.7112810015678406 0.6973749995231628
          0.2333730012178421 0.7086640000343323 0.665831983089447 -0.27495700120925903 0.8316770195960999 0.4824030101299286
          -0.8009070158004761 0.0014100000262260437 -0.5987870097160339 -0.7569199800491333 -0.13464799523353577 -0.6394860148429871
          -0.6542739868164062 -0.3135339915752411 -0.6882020235061646 -0.5781300067901611 -0.3877429962158203 -0.7179279923439026
          -0.5285900235176086 -0.3655160069465637 -0.7661529779434204 -0.4525519907474518 -0.5206390023231506 -0.7239699959754944
          0.7144110202789307 -0.6856780052185059 0.139506995677948 0.7450190186500549 -0.6340500116348267 0.20718799531459808
          0.5276979804039001 0.49698999524116516 0.6888650059700012 0.798695981502533 -0.4573740065097809 0.39101600646972656
          0.7387710213661194 -0.633804976940155 0.22914600372314453 0.7209349870681763 -0.05968699976801872 0.6904280185699463
          0.7339590191841125 -0.6036459803581238 0.3113119900226593 -0.43487900495529175 -0.5135279893875122 -0.7397090196609497
          -0.32573598623275757 -0.6124399900436401 -0.720287024974823 -0.20836099982261658 -0.7140780091285706 -0.6683400273323059
          -0.2237350046634674 -0.725383996963501 -0.6509690284729004 -0.029582999646663666 -0.846327006816864 -0.531840980052948
          -0.07620900124311447 -0.8145189881324768 -0.5751090049743652 0.4451189935207367 -0.8701000213623047 -0.21164800226688385
          -0.568352997303009 0.7515590190887451 0.33486300706863403 0.2556360065937042 0.6804550290107727 0.6867539882659912
          0.37296900153160095 0.5707100033760071 0.7315629720687866 0.027084000408649445 0.7636770009994507 0.6450300216674805
          -0.08285500109195709 0.6581130027770996 0.7483469843864441 -0.2222599983215332 0.7562829852104187 0.6153349876403809
          -0.13421599566936493 0.7437909841537476 0.6547989845275879 0.5292909741401672 0.19512200355529785 0.825698971748352
          0.38310500979423523 0.5386130213737488 0.7504180073738098 0.42730799317359924 0.44097399711608887 0.7892720103263855
          0.16154399514198303 0.5382660031318665 0.8271480202674866 -0.04219600185751915 0.6800490021705627 0.7319509983062744
          -0.8357970118522644 0.1401059925556183 -0.5308619737625122 -0.8603060245513916 -0.09046799689531326 -0.5016859769821167
          -0.6713830232620239 -0.3607519865036011 -0.6473810076713562 0.637328028678894 -0.7705879807472229 -0.002517000073567033
          0.6605629920959473 -0.7445030212402344 0.09680899977684021 0.7368069887161255 -0.19463799893856049 0.6474810242652893
          0.7280330061912537 -0.6320210099220276 0.26555201411247253 -0.29902300238609314 -0.6459829807281494 -0.7023469805717468