<?xml version="1.0"?>
<VTKFile type="PolyData" version="0.1" byte_order="LittleEndian" header_type="UInt32" compressor="vtkZLibDataCompressor">
  <PolyData>
    <Piece NumberOfPoints="1562" NumberOfVerts="0" NumberOfLines="0" NumberOfStrips="0" NumberOfPolys="3170">
      <PointData Normals="Normals">
        <DataArray type="Float32" Name="Normals" NumberOfComponents="3" format="ascii" RangeMin="0.9999992779792658" RangeMax="1.0000007860143756">
          -0.419624000787735 -0.8601019978523254 0.2900699973106384 -0.003880999982357025 -0.9399999976158142 0.34115201234817505
          -0.27449700236320496 -0.8588749766349792 0.43241798877716064 -0.36702701449394226 -0.8161180019378662 0.44636601209640503
          -0.5978090167045593 -0.7500240206718445 0.2829979956150055 -0.7742570042610168 -0.6036040186882019 0.1902340054512024
          -0.46816301345825195 -0.8760190010070801 0.1158209964632988 -0.13991999626159668 -0.9812530279159546 0.132532000541687
          0.009576999582350254 -0.8842020034790039 0.46700701117515564 0.18231600522994995 -0.9521359801292419 0.24535399675369263
          0.4873969852924347 -0.7523630261421204 0.4431630074977875 0.45495301485061646 -0.8324069976806641 0.3164129853248596
          -0.12504799664020538 -0.8230950236320496 0.5539659857749939 -0.5487939715385437 -0.7704979777336121 0.3242810070514679
          -0.2451300024986267 -0.8070290088653564 0.5372300148010254 -0.44627299904823303 -0.7698410153388977 0.45627400279045105
          -0.7994430065155029 -0.5999720096588135 0.03040199913084507 -0.7081639766693115 -0.6884840130805969 0.15650199353694916
          -0.719219982624054 -0.6889899969100952 0.08952599763870239 -0.885083019733429 -0.4604159891605377 -0.0681539997458458
          -0.8926609754562378 -0.42279699444770813 0.15619899332523346 -0.9454630017280579 -0.3076390027999878 0.10704299807548523
          -0.12671899795532227 -0.9916459918022156 -0.02409599907696247 -0.4559589922428131 -0.8887280225753784 0.047582998871803284
          0.27303698658943176 -0.9616289734840393 0.02685599960386753 0.26596999168395996 -0.8312249779701233 0.48818498849868774
          0.27625301480293274 -0.961018979549408 -0.011296000331640244 0.12041100114583969 -0.978488028049469 0.16752000153064728
          -0.08476699888706207 -0.8631380200386047 0.4978019893169403 -0.10641700029373169 -0.8378909826278687 0.5353630185127258
          -0.6538879871368408 -0.7043570280075073 0.27624499797821045 -0.2697489857673645 -0.837909996509552 0.4744910001754761
          -0.55246502161026 -0.7456740140914917 0.37249499559402466 -0.6661170125007629 -0.6741909980773926 0.31898999214172363
          -0.7561789751052856 -0.640330970287323 0.13479599356651306 -0.8399999737739563 -0.5318999886512756 -0.10715900361537933
          -0.8217120170593262 -0.569096028804779 0.030334999784827232 -0.7929679751396179 -0.6089720129966736 -0.01883699931204319
          -0.9068650007247925 -0.42138800024986267 -0.0053889998234808445 -0.9154629707336426 -0.40175899863243103 -0.02274700067937374
          -0.8570089936256409 -0.47599300742149353 -0.19739800691604614 -0.8314669728279114 -0.5396649837493896 -0.1319980025291443
          -0.870278000831604 -0.48726901412010193 -0.0720050036907196 -0.41484498977661133 -0.9045550227165222 -0.09840799868106842
          0.229326993227005 -0.9498590230941772 -0.21254700422286987 -0.07603099942207336 -0.9646369814872742 -0.25237900018692017
          0.4415220022201538 -0.859449028968811 -0.2576940059661865 0.10875499993562698 -0.9783530235290527 0.17606399953365326
          -0.11061999946832657 -0.9565979838371277 0.26959800720214844 0.09157799929380417 -0.9921000003814697 -0.08573800325393677
          0.43182700872421265 -0.8585109710693359 -0.27655699849128723 -0.1934410035610199 -0.977092981338501 0.08870700001716614
          -0.19931399822235107 -0.9799180030822754 -0.00583899999037385 -0.16044799983501434 -0.8733530044555664 0.4599039852619171
          -0.16914600133895874 -0.8796430230140686 0.4445419907569885 -0.12681500613689423 -0.8709380030632019 0.4747470021247864
          -0.1457809954881668 -0.8476830124855042 0.5100799798965454 -0.17765000462532043 -0.8702639937400818 0.45943599939346313
          -0.1542070060968399 -0.8767150044441223 0.45562198758125305 -0.20182199776172638 -0.8693439960479736 0.451119989156723
          -0.38159099221229553 -0.8299490213394165 0.40690600872039795 -0.6809560060501099 -0.6348260045051575 0.3650969862937927
          -0.5838189721107483 -0.7618719935417175 0.28054898977279663 -0.7376419901847839 -0.6508539915084839 0.1796479970216751
          -0.7411649823188782 -0.6510050296783447 0.16391199827194214 -0.7336829900741577 -0.6146020293235779 0.2897830009460449
          -0.7534180283546448 -0.625229001045227 0.20359300076961517 -0.7262790203094482 -0.620274007320404 0.29627400636672974
          -0.8624240159988403 -0.47931399941444397 -0.16273699700832367 -0.7882429957389832 -0.5663250088691711 0.24072499573230743
          -0.8670030236244202 -0.49561598896980286 0.051677998155355453 -0.8784189820289612 -0.4488379955291748 0.16408799588680267
          -0.6290799975395203 -0.748416006565094 -0.21007700264453888 -0.8362460136413574 -0.5076979994773865 -0.20720699429512024
          -0.8853269815444946 -0.45661500096321106 -0.08774500340223312 -0.8607959747314453 -0.5030009746551514 0.0775889977812767
          -0.8768849968910217 -0.47672998905181885 0.06164700165390968 -0.9193009734153748 -0.372406005859375 -0.1272750049829483
          -0.8753669857978821 -0.4682309925556183 -0.12038300186395645 -0.8897619843482971 -0.4425959885120392 -0.11150100082159042
          -0.17706100642681122 -0.9134870171546936 -0.36632099747657776 0.2465749979019165 -0.8397380113601685 -0.4837779998779297
          0.5151240229606628 -0.5724319815635681 -0.637939989566803 0.7468029856681824 -0.6208670139312744 -0.23834599554538727
          -0.30858999490737915 -0.9413819909095764 0.13627800345420837 -0.17066000401973724 -0.8822739720344543 0.4387120008468628
          0.027751000598073006 -0.9047530293464661 -0.42503198981285095 -0.16238699853420258 -0.9591320157051086 -0.2317270040512085
          0.11117900162935257 -0.7454209923744202 -0.657256007194519 0.588051974773407 -0.48621898889541626 -0.6463639736175537
          -0.10703299939632416 -0.9874609708786011 0.11603700369596481 -0.2439880073070526 -0.9591990113258362 -0.14285099506378174
          -0.10097800195217133 -0.865477979183197 0.49066299200057983 -0.10176499933004379 -0.8813629746437073 0.4613490104675293
          -0.15644200146198273 -0.8789010047912598 0.45061999559402466 -0.17093099653720856 -0.8859400153160095 0.43115299940109253
          -0.043526001274585724 -0.831529974937439 0.5537729859352112 0.018686000257730484 -0.8250929713249207 0.5646870136260986
          -0.23953300714492798 -0.8610590100288391 0.44855499267578125 -0.37543898820877075 -0.8552280068397522 0.3572539985179901
          -0.4785729944705963 -0.8127490282058716 0.33227500319480896 -0.6042389869689941 -0.7423120141029358 0.2895990014076233
          -0.49493300914764404 -0.8007940053939819 0.33730000257492065 -0.801738977432251 -0.5869749784469604 0.1125819981098175
          -0.8781179785728455 -0.47448500990867615 0.06142900139093399 -0.7867670059204102 -0.5793409943580627 0.21298100054264069
          -0.8080750107765198 -0.5787630081176758 0.1097629964351654 -0.84375 -0.5331100225448608 0.06228400021791458
          -0.6488329768180847 -0.7069309949874878 0.28154000639915466 -0.808201014995575 -0.5340219736099243 0.24825699627399445
          -0.9245929718017578 -0.3762289881706238 0.059838999062776566 -0.9723870158195496 -0.2312999963760376 0.031046999618411064
          -0.9840989708900452 -0.177264004945755 -0.011242000386118889 -0.5469120144844055 -0.737716019153595 -0.3958050012588501
          -0.5661330223083496 -0.5125100016593933 -0.6456220149993896 -0.6969709992408752 -0.39778798818588257 -0.5966539978981018
          -0.8605819940567017 -0.4257259964942932 -0.2795650064945221 -0.8850709795951843 -0.4649589955806732 0.021524999290704727
          -0.9298070073127747 -0.3536970019340515 -0.10176900029182434 -0.9817559719085693 -0.15941700339317322 -0.10364100337028503
          -0.9693229794502258 -0.23055000603199005 -0.08519800007343292 -0.9375569820404053 -0.3192940056324005 -0.13797999918460846
          -0.9524049758911133 0.08025400340557098 -0.2940810024738312 -0.17365600168704987 -0.8000829815864563 -0.5742049813270569
          0.17676199972629547 -0.6644489765167236 -0.7261289954185486 0.5889729857444763 -0.34290599822998047 -0.7317969799041748
          0.5792220234870911 -0.2143539935350418 -0.7864819765090942 0.409637987613678 -0.4706830084323883 -0.7814429998397827
          0.021474000066518784 -0.9526540040969849 0.3032970130443573 0.18893399834632874 -0.8583279848098755 0.4770500063896179
          -0.07856500148773193 -0.7568590044975281 -0.6488379836082458 -0.07486200332641602 -0.9113969802856445 -0.40466201305389404
          0.012671999633312225 -0.9853900074958801 -0.16983799636363983 0.13869599997997284 -0.5500029921531677 -0.8235660195350647
          -0.06769999861717224 -0.4416100084781647 -0.8946490287780762 0.5445110201835632 -0.19814400374889374 -0.8150129914283752
          0.2655540108680725 -0.26214098930358887 -0.9277729988098145 0.3967039883136749 -0.8618069887161255 0.3160940110683441
          0.3895699977874756 -0.8503819704055786 0.3536739945411682 0.27417200803756714 -0.9508069753646851 0.14420799911022186
          -0.030223000794649124 -0.8551239967346191 0.5175420045852661 -0.03917799890041351 -0.8661100268363953 0.4983159899711609
          -0.2946310043334961 -0.8773919939994812 0.3786509931087494 -0.01634100079536438 -0.8762109875679016 0.4816510081291199
          -0.10279999673366547 -0.8806560039520264 0.4624679982662201 -0.1561180055141449 -0.882282018661499 0.4440779983997345
          0.21541599929332733 -0.7733550071716309 0.596252977848053 0.1379850059747696 -0.8057929873466492 0.5758979916572571
          0.33207398653030396 -0.6976720094680786 0.6348069906234741 -0.3131749927997589 -0.8579450249671936 0.40724799036979675
          -0.4793260097503662 -0.7959250211715698 0.3697989881038666 -0.9257180094718933 -0.3719629943370819 -0.06848499923944473
          -0.9818090200424194 0.004896000027656555 -0.18980899453163147 -0.9561070203781128 -0.261588990688324 -0.13202400505542755
          -0.914887011051178 -0.3879129886627197 -0.11183000355958939 -0.7608910202980042 -0.6216560006141663 0.18598000705242157
          -0.8550509810447693 -0.5126990079879761 0.0776360034942627 -0.8445900082588196 -0.5312520265579224 0.06662599742412567
          -0.6964010000228882 -0.6726710200309753 0.25008100271224976 -0.6006870269775391 -0.7321619987487793 0.3211129903793335
          -0.3788580000400543 -0.8204770088195801 0.42811599373817444 -0.9895300269126892 0.08085700124502182 -0.11954999715089798
          -0.9557890295982361 0.2594889998435974 -0.13832199573516846 -0.10893300175666809 -0.3494110107421875 -0.930616021156311
          -0.10179399698972702 -0.44304099678993225 -0.890703022480011 -0.19268399477005005 -0.5508819818496704 -0.8120359778404236
          -0.5235559940338135 -0.14186599850654602 -0.8400970101356506 -0.6293320059776306 -0.3528760075569153 -0.6924009919166565
          -0.22614100575447083 -0.21052800118923187 -0.9510719776153564 -0.8697360157966614 -0.2790769934654236 -0.40703099966049194
          -0.5954059958457947 -0.0826530009508133 -0.799161970615387 -0.9183909893035889 -0.10446500033140182 -0.381633996963501
          -0.9328969717025757 -0.03848699852824211 -0.35808199644088745 -0.9706940054893494 0.17834599316120148 -0.16107800602912903
          -0.9610819816589355 0.2631480097770691 -0.08410599827766418 -0.8947569727897644 0.4435510039329529 -0.05168600007891655
          -0.8111900091171265 0.282382994890213 -0.5120840072631836 -0.770995020866394 0.6287649869918823 -0.10110100358724594
          -0.7302039861679077 0.5823590159416199 -0.3572950065135956 -0.6861079931259155 0.529259979724884 -0.4991390109062195
          0.34426799416542053 -0.2228969931602478 -0.9120290279388428 0.5301120281219482 0.13431000709533691 -0.8372229933738708
          0.4822869896888733 0.07214999943971634 -0.8730369806289673 0.430649995803833 -0.741752028465271 0.514145016670227
          -0.028801999986171722 -0.8115900158882141 -0.5835170149803162 0.12284699827432632 -0.5511699914932251 -0.8252999782562256
          0.16875199973583221 -0.9688079953193665 -0.18147499859333038 0.22645899653434753 -0.8710650205612183 -0.4358460009098053
          0.3780440092086792 -0.9182109832763672 0.11819899827241898 0.3850350081920624 -0.919044017791748 0.08429799973964691
          -0.1064079999923706 -0.2636969983577728 -0.95871901512146 -0.12884199619293213 -0.11496499925851822 -0.984978973865509
          0.0723470002412796 -0.12996800243854523 -0.9888749718666077 -0.03488299995660782 0.04238399863243103 -0.9984920024871826
          0.47509101033210754 -0.877036988735199 0.07137800008058548 0.6322649717330933 -0.6067020297050476 0.48182401061058044
          0.6630799770355225 -0.6771730184555054 0.3190020024776459 0.4075169861316681 -0.8426790237426758 0.35188400745391846
          0.1279750019311905 -0.8252249956130981 0.5501149892807007 -0.1569570004940033 -0.8791490197181702 0.4499579966068268
          0.17539900541305542 -0.8123530149459839 0.5561630129814148 0.019874000921845436 -0.8479499816894531 0.5297039747238159
          0.46154800057411194 -0.7011809945106506 0.5434319972991943 0.4831570088863373 -0.6307340264320374 0.6072350144386292
          0.3691610097885132 -0.6923819780349731 0.6199420094490051 0.5941609740257263 -0.5433629751205444 0.59306800365448
          -0.2579759955406189 -0.8637329936027527 0.43291300535202026 0.008945999667048454 -0.8582339882850647 0.5131809711456299
          -0.9588149785995483 -0.1235629990696907 -0.2557480037212372 -0.7864639759063721 0.5381450057029724 -0.30310800671577454
          -0.9604550004005432 0.04484499990940094 -0.27480098605155945 -0.8926439881324768 0.2728390097618103 -0.35881200432777405
          -0.6756280064582825 0.5489420294761658 -0.492127001285553 -0.6348509788513184 0.6723909974098206 -0.3805980086326599
          -0.8778179883956909 -0.47870299220085144 -0.016681000590324402 -0.9338679909706116 -0.10034500062465668 -0.3432520031929016
          -0.9524099826812744 -0.043740998953580856 -0.3016659915447235 -0.8880810141563416 0.10193400084972382 -0.4482420086860657
          -0.6560750007629395 -0.6972230076789856 0.2888689935207367 -0.7587010264396667 -0.6175569891929626 0.20735600590705872
          -0.9142550230026245 -0.4049240052700043 0.013224000111222267 0 0 1
          -0.8775720000267029 -0.4762749969959259 0.055031999945640564 -0.8978239893913269 -0.43680301308631897 -0.055821001529693604
          -0.957522988319397 -0.13478000462055206 -0.25491800904273987 -0.5218430161476135 -0.7526739835739136 0.4014500081539154
          -0.20967400074005127 -0.8538730144500732 0.47637999057769775 -0.2148440033197403 -0.8520539999008179 0.4773319959640503
          -0.3203670084476471 -0.8240169882774353 0.46729201078414917 -0.4306910037994385 -0.7916430234909058 0.4333670139312744
          -0.7758129835128784 0.57082200050354 -0.2688409984111786 -0.5792340040206909 0.7871729731559753 -0.2117680013179779
          0.17176200449466705 -0.12058000266551971 -0.9777309894561768 0.20507599413394928 0.25299298763275146 -0.9454830288887024
          -0.02546899951994419 0.20224200189113617 -0.9790040254592896 -0.22569100558757782 0.15239299833774567 -0.9622060060501099
          -0.7234749794006348 0.06062600016593933 -0.6876829862594604 -0.29216501116752625 0.3629800081253052 -0.8848080039024353
          -0.6384130120277405 0.30437201261520386 -0.7069550156593323 -0.7669540047645569 0.2902109920978546 -0.5723279714584351
          -0.5525839924812317 0.8301849961280823 0.07378499954938889 -0.5402349829673767 0.6211379766464233 -0.5677449703216553
          -0.4402190148830414 0.8246260285377502 -0.35524699091911316 -0.3585070073604584 0.9331859946250916 -0.025242000818252563
          -0.48723599314689636 0.7138170003890991 -0.5030570030212402 0.3408609926700592 0.1508989930152893 -0.9279239773750305
          0.40456199645996094 0.4010219871997833 -0.8218950033187866 0.5498359799385071 0.3210879862308502 -0.7710919976234436
          0.630961000919342 0.2277189940214157 -0.7416409850120544 0.3094319999217987 0.2509390115737915 -0.9172139763832092
          0.6712179780006409 -0.6174349784851074 0.4101699888706207 0.7387239933013916 -0.49528300762176514 0.45714500546455383
          0.5516830086708069 -0.46575701236724854 -0.6918929815292358 0.3000069856643677 -0.2824989855289459 -0.9111480116844177
          0.5123770236968994 -0.8585100173950195 0.020736999809741974 0.6197649836540222 -0.7331380248069763 -0.2800000011920929
          0.5299019813537598 -0.7900480031967163 0.3082660138607025 0.5945850014686584 -0.7403590083122253 0.3135870099067688
          -0.17461000382900238 0.14216400682926178 -0.9743210077285767 -0.08153299987316132 0.13545799255371094 -0.9874230027198792
          0.4300999939441681 -0.06262700259685516 -0.9006059765815735 0.22895599901676178 0.18018600344657898 -0.9566149711608887
          -0.03596799820661545 0.34981200098991394 -0.9361289739608765 0.8373550176620483 -0.2979840040206909 0.4583039879798889
          0.8123059868812561 -0.38623499870300293 0.43701300024986267 0.40087899565696716 -0.7110649943351746 0.5776529908180237
          0.2878890037536621 -0.770684003829956 0.5684769749641418 0.624737024307251 -0.5908759832382202 0.5104600191116333
          0.533955991268158 -0.5669620037078857 0.6272510290145874 0.6169970035552979 -0.5200319886207581 0.5906620025634766
          0.7636020183563232 -0.5250899791717529 0.3757550120353699 0.650530993938446 -0.45030900835990906 0.611581027507782
          0.8219599723815918 -0.42158499360084534 0.3829460144042969 0.732653021812439 -0.46219998598098755 0.4995900094509125
          0.6938049793243408 -0.41315099596977234 0.5898650288581848 -0.08810800313949585 -0.8575350046157837 0.5068240165710449
          0.3015260100364685 -0.7621579766273499 0.5728849768638611 0.1703840047121048 -0.8033490180969238 0.5706130266189575
          0.1078990027308464 -0.8179029822349548 0.5651479959487915 0.29073798656463623 -0.784093976020813 0.5483310222625732
          -0.8648999929428101 0.22805500030517578 -0.4471449851989746 -0.40119999647140503 0.8244190216064453 -0.3992159962654114
          -0.7863199710845947 0.4186069965362549 -0.4543890058994293 -0.6376209855079651 0.6071659922599792 -0.47411900758743286
          -0.38709399104118347 0.7214480042457581 -0.5741699934005737 -0.13347899913787842 0.8830040097236633 -0.44998499751091003
          -0.7956740260124207 0.296550989151001 -0.5281670093536377 -0.6518949866294861 0.5237579941749573 -0.5483710169792175
          -0.5565890073776245 0.5458490252494812 -0.6263049840927124 -0.6643869876861572 -0.683974027633667 0.3012799918651581
          -0.5335879921913147 -0.7553830146789551 0.38036900758743286 -0.6404110193252563 -0.702817976474762 0.3097110092639923
          -0.7299389839172363 -0.6427050232887268 0.2326360046863556 -0.8205459713935852 -0.5546259880065918 0.13818499445915222
          -0.5948219895362854 -0.7280719876289368 0.34073200821876526 -0.9550830125808716 -0.17523500323295593 -0.23897500336170197
          -0.9268149733543396 -0.3753030002117157 -0.012679999694228172 -0.8997799754142761 0.08929900079965591 -0.4271090030670166
          -0.667527973651886 0.38137200474739075 -0.6395009756088257 -0.07971099764108658 -0.8570529818534851 0.509024977684021
          -0.13245199620723724 -0.8593549728393555 0.493928998708725 -0.2025340050458908 -0.8357260227203369 0.51043301820755
          -0.3747360110282898 -0.798160970211029 0.47171100974082947 -0.45230600237846375 0.8699300289154053 -0.19657300412654877
          -0.22308699786663055 0.9735379815101624 -0.049557000398635864 -0.34854400157928467 0.8730490207672119 -0.3410319983959198
          0.0074970000423491 0.4655269980430603 -0.8850020170211792 0.1899999976158142 0.5637030005455017 -0.8038280010223389
          0.37608999013900757 0.5163130164146423 -0.7694000005722046 -0.21205000579357147 0.5660200119018555 -0.7966529726982117
          0.03721100091934204 0.6611610054969788 -0.7493199706077576 -0.4822410047054291 0.5449389815330505 -0.685920000076294
          -0.44957399368286133 0.6547409892082214 -0.6076170206069946 -0.17838099598884583 0.8195549845695496 -0.544526994228363
          -0.2967120110988617 0.8172230124473572 -0.4940730035305023 -0.24578799307346344 0.9152659773826599 -0.3191800117492676
          -0.1815429925918579 0.9792649745941162 -0.08990400284528732 0.48496299982070923 0.4980199933052063 -0.718878984451294
          0.40481698513031006 0.40825799107551575 -0.8181989789009094 0.8872730135917664 -0.3967919945716858 0.23516599833965302
          0.8945299983024597 -0.3262920081615448 0.3055320084095001 0.8493310213088989 -0.4944089949131012 -0.18492500483989716
          0.6528339982032776 -0.022985000163316727 -0.7571529746055603 0.8357909917831421 -0.2558229863643646 -0.48580700159072876
          0.7884809970855713 -0.5361940264701843 0.3013190031051636 0.8548550009727478 -0.485615998506546 0.18275700509548187
          -0.09910500049591064 0.3472749888896942 -0.9325119853019714 0.19272999465465546 0.39637699723243713 -0.897629976272583
          0.6175850033760071 0.1438080072402954 -0.7732449769973755 -0.2016890048980713 0.49014899134635925 -0.8479830026626587
          0.28384900093078613 0.6333199739456177 -0.7199550271034241 -0.0744440034031868 0.5607669949531555 -0.8246200084686279
          0.8818429708480835 -0.2241870015859604 0.4148400127887726 0.894989013671875 -0.22311200201511383 0.3862839937210083
          0.5125030279159546 -0.6430069804191589 0.5691080093383789 0.4328010082244873 -0.6783559918403625 0.5937319993972778
          0.7718669772148132 -0.2980419993400574 0.561598002910614 0.7987949848175049 -0.3071669936180115 0.5172770023345947
          0.6939910054206848 -0.4745039939880371 0.5414999723434448 0.929826021194458 -0.2680470049381256 0.25213998556137085
          0.8948410153388977 -0.22420300543308258 0.385996013879776 0.825177013874054 -0.24020199477672577 0.5112590193748474
          0.34616199135780334 -0.7222179770469666 0.5988100171089172 0.49783799052238464 -0.6301029920578003 0.595924973487854
          -0.028095999732613564 -0.8461419939994812 0.5322170257568359 0.1324550062417984 -0.8015310168266296 0.5830990076065063
          0.322860985994339 -0.7193940281867981 0.6150069832801819 -0.20612600445747375 0.9314540028572083 -0.2998430132865906
          -0.5145429968833923 0.6640610098838806 -0.5424649715423584 -0.28059500455856323 0.7985900044441223 -0.5324659943580627
          -0.04437600076198578 0.8627809882164001 -0.5036259889602661 0.13346900045871735 0.9108700156211853 -0.390514999628067
          0.023249000310897827 0.9297999739646912 -0.36733099818229675 -0.049922000616788864 0.924006998538971 -0.3791019916534424
          -0.404803991317749 0.6726800203323364 -0.6193829774856567 -0.40850698947906494 0.7192800045013428 -0.5619239807128906
          -0.40432000160217285 0.7381939888000488 -0.5399960279464722 -0.3117949962615967 0.7397189736366272 -0.5963220000267029
          -0.3733919858932495 -0.8142639994621277 0.44446900486946106 -0.6702539920806885 -0.6773080229759216 0.3033379912376404
          -0.4939329922199249 -0.7643830180168152 0.4144259989261627 -0.5879169702529907 -0.7135440111160278 0.3810630142688751
          -0.777800977230072 -0.6006699800491333 0.18498900532722473 -0.8589029908180237 -0.5027080178260803 0.0978270024061203
          -0.44002801179885864 -0.7849469780921936 0.4361569881439209 -0.9505820274353027 -0.050919998437166214 -0.30626800656318665
          -0.7545599937438965 0.2750140130519867 -0.5958240032196045 -0.9189519882202148 -0.3943670094013214 -0.0017529999604448676
          -0.48297199606895447 0.5097479820251465 -0.7119659781455994 -0.4740630090236664 0.36884498596191406 -0.7995110154151917
          -0.10631900280714035 -0.8254860043525696 0.5543190240859985 -0.006144000217318535 0.9983999729156494 0.05621600151062012
          0.010634999722242355 0.9948769807815552 -0.10052800178527832 0.002194999950006604 0.9633129835128784 -0.26837098598480225
          0.2971020042896271 0.6865289807319641 -0.6636329889297485 0.16713300347328186 0.717631995677948 -0.676069974899292
          0.4455139935016632 0.5784400105476379 -0.6833189725875854 0.4434620141983032 0.6182669997215271 -0.6489120125770569
          -0.11979600042104721 0.7388740181922913 -0.6631100177764893 0.07662100344896317 0.8189150094985962 -0.5687779784202576
          -0.02700600028038025 0.8013200163841248 -0.5976259708404541 -0.08843500167131424 0.9342830181121826 -0.34539100527763367
          -0.0983090028166771 0.9890609979629517 -0.1099729984998703 0.9442300200462341 -0.2569679915904999 0.2059050053358078
          0.9107509851455688 -0.30342599749565125 0.280115008354187 0.9150930047035217 -0.35997799038887024 0.18171599507331848
          0.9627910256385803 -0.2675989866256714 0.03775399923324585 0.9390869736671448 -0.13873200118541718 -0.3144330084323883
          0.8939669728279114 -0.28401100635528564 0.34664198756217957 -0.08050800114870071 0.5241360068321228 -0.847819983959198
          0.12426699697971344 0.5549259781837463 -0.8225659728050232 0.3823370039463043 0.5566009879112244 -0.7375730276107788
          0.829708993434906 0.040344998240470886 -0.5567359924316406 0.9154559969902039 0.13387200236320496 -0.3794969916343689
          -0.1971459984779358 0.5993340015411377 -0.7758430242538452 0.40402600169181824 0.7389929890632629 -0.5391219854354858
          0.30988800525665283 0.710008978843689 -0.6323419809341431 -0.033734001219272614 0.7646920084953308 -0.643513023853302
          -0.045876000076532364 0.6645569801330566 -0.7458279728889465 0.8953269720077515 -0.27844399213790894 0.34764599800109863
          0.8936910033226013 -0.3062939941883087 0.32787299156188965 0.7839469909667969 -0.3698360025882721 0.498647004365921
          0.544730007648468 -0.6105629801750183 0.574874997138977 0.5577989816665649 -0.591858983039856 0.5818610191345215
          0.8617460131645203 -0.10681100189685822 0.4959680140018463 0.835444986820221 -0.27428099513053894 0.4762359857559204
          0.9224889874458313 -0.08827300369739532 0.37579500675201416 0.8444370031356812 -0.27777299284935 0.45800599455833435
          0.690949022769928 -0.47725799679756165 0.5429679751396179 0.9099310040473938 0.06695699691772461 0.4093190133571625
          0.8962180018424988 -0.08552999794483185 0.43529200553894043 0.8997730016708374 0.07869400084018707 0.42920300364494324
          0.6271659731864929 -0.5238059759140015 0.5764470100402832 0.4745739996433258 -0.6326370239257812 0.6120039820671082
          0.059459999203681946 -0.7997329831123352 0.5974050164222717 0.2716580033302307 -0.7358270287513733 0.620290994644165
          -0.28674599528312683 0.7715470194816589 -0.5678830146789551 -0.15063300728797913 0.8028730154037476 -0.5768060088157654
          0.0348609983921051 0.8821420073509216 -0.4696919918060303 0.00010699999984353781 0.8329200148582458 -0.5533940196037292
          0.05697700008749962 0.885903000831604 -0.46035799384117126 0.14496399462223053 0.9606760144233704 -0.2368279993534088
          0.27840301394462585 0.9388989806175232 -0.20238499343395233 0.08765599876642227 0.8299160003662109 -0.5509589910507202
          0.1955370008945465 0.8814250230789185 -0.42994800209999084 -0.3446910083293915 0.7560290098190308 -0.5564240217208862
          -0.41860300302505493 0.6055160164833069 -0.676846981048584 -0.41248199343681335 0.6987810134887695 -0.584434986114502
          -0.23658700287342072 -0.8339899778366089 0.4984860122203827 -0.689985990524292 -0.666051983833313 0.2833609879016876
          -0.25048500299453735 -0.8142499923706055 0.5236939787864685 -0.3465549945831299 -0.8000800013542175 0.4896650016307831
          -0.44414401054382324 -0.7579320073127747 0.4777809977531433 -0.5814869999885559 -0.7193779945373535 0.37995800375938416
          -0.7851179838180542 -0.5951319932937622 0.17148500680923462 -0.9409180283546448 -0.013673000037670135 -0.338358998298645
          -0.7029759883880615 0.3753550052642822 -0.6040970087051392 -0.2290329933166504 0.6270670294761658 -0.7445340156555176
          -0.9567800164222717 -0.2724339962005615 -0.10174799710512161 -0.8741580247879028 -0.4794889986515045 0.07705699652433395
          -0.026531999930739403 0.7079370021820068 -0.7057769894599915 0.145019993185997 -0.7690190076828003 0.6225579977035522
          -0.039021000266075134 -0.8265500068664551 0.5615090131759644 0.07516100257635117 0.9969810247421265 0.019485000520944595
          0.08277399837970734 0.9938039779663086 0.07417500019073486 0.1085129976272583 0.9902729988098145 -0.08708299696445465
          0.2890140116214752 0.7649340033531189 -0.5756279826164246 0.2099200040102005 0.8800359964370728 -0.4259929955005646
          0.08428599685430527 0.9544950127601624 -0.28606900572776794 0.905269980430603 -0.32178300619125366 0.2773829996585846
          0.9702320098876953 -0.14640900492668152 0.19291099905967712 0.9150890111923218 -0.1480810046195984 0.3750779926776886
          0.9419950246810913 -0.2963219881057739 0.15760000050067902 0.13431000709533691 0.7286040186882019 -0.6716369986534119
          -0.015002000145614147 0.700016975402832 -0.7139689922332764 0.23044300079345703 0.6634860038757324 -0.7118160128593445
          0.5570020079612732 0.4112190008163452 -0.7215589880943298 0.7458130121231079 0.48381200432777405 -0.4579170048236847