<?xml version="1.0"?>
<VTKFile type="PolyData" version="0.1" byte_order="LittleEndian" header_type="UInt32" compressor="vtkZLibDataCompressor">
  <PolyData>
    <Piece NumberOfPoints="545" NumberOfVerts="0" NumberOfLines="0" NumberOfStrips="0" NumberOfPolys="1096">
      <PointData Normals="Normals">
        <DataArray type="Float32" Name="Normals" NumberOfComponents="3" format="ascii" RangeMin="0.999999233764683" RangeMax="1.0000007621577982">
          -0.5027740001678467 0.4059320092201233 -0.7631760239601135 -0.4621410071849823 0.43819698691368103 -0.7709789872169495
          -0.550275981426239 0.22068899869918823 -0.8052909970283508 -0.5330020189285278 -0.05529699847102165 -0.8443049788475037
          -0.45088300108909607 0.3862909972667694 -0.8046640157699585 -0.4422999918460846 0.647799015045166 -0.6202629804611206
          -0.34088200330734253 0.7787600159645081 -0.526623010635376 -0.4537310004234314 0.5407029986381531 -0.7083560228347778
          -0.45598098635673523 0.3906320035457611 -0.7996799945831299 -0.43876299262046814 -0.28826600313186646 -0.8511109948158264
          -0.5743319988250732 -0.08852600306272507 -0.8138219714164734 -0.5586299896240234 -0.07529699802398682 -0.8259919881820679
          -0.5963079929351807 0.05416300147771835 -0.8009269833564758 -0.5527809858322144 0.43946701288223267 -0.7080270051956177
          -0.5188149809837341 0.030441999435424805 -0.8543440103530884 -0.5267860293388367 -0.12635500729084015 -0.8405539989471436
          -0.5625960230827332 -0.09900599718093872 -0.8207830190658569 -0.5091490149497986 -0.2698360085487366 -0.8172850012779236
          -0.5355259776115417 -0.1454080045223236 -0.8319069743156433 -0.48670899868011475 -0.24153999984264374 -0.839506983757019
          -0.5211849808692932 0.6006150245666504 -0.6063219904899597 -0.5690400004386902 0.33226001262664795 -0.7521950006484985
          -0.4125089943408966 0.7694990038871765 -0.4875530004501343 -0.2376980036497116 0.9181510210037231 -0.31701400876045227
          -0.1609009951353073 0.9668160080909729 -0.19843900203704834 -0.48022300004959106 0.7452870011329651 -0.4625290036201477
          -0.3043929934501648 0.8935649991035461 -0.3299799859523773 -0.1596989929676056 0.9696789979934692 -0.1849839985370636
          -0.5242660045623779 -0.2547590136528015 -0.8125529885292053 -0.5811570286750793 -0.035071998834609985 -0.8130350112915039
          -0.605650007724762 0.2720229923725128 -0.7477909922599792 -0.7006189823150635 0.17537300288677216 -0.691648006439209
          -0.595661997795105 -0.086497001349926 -0.7985649704933167 -0.7731680274009705 -0.00865899957716465 -0.6341419816017151
          -0.43529000878334045 -0.4218049943447113 -0.7953630089759827 -0.4195840060710907 -0.39163801074028015 -0.8188830018043518
          -0.48766499757766724 -0.3736000061035156 -0.7890530228614807 -0.38381800055503845 -0.5288029909133911 -0.7570009827613831
          -0.44638100266456604 -0.27816399931907654 -0.8505110144615173 -0.46360599994659424 -0.28338000178337097 -0.8395029902458191
          -0.6240360140800476 -0.3125990033149719 -0.716143012046814 -0.3921450078487396 -0.39258500933647156 -0.8319249749183655
          -0.45474499464035034 0.6787480115890503 -0.5766350030899048 -0.08568999916315079 0.9937360286712646 -0.07173299789428711
          0.01960200071334839 0.9995440244674683 -0.022985000163316727 0.08722200244665146 0.9810559749603271 0.1729770004749298
          0.16061100363731384 0.9564499855041504 0.24373500049114227 -0.3147920072078705 0.9196109771728516 -0.23499499261379242
          -0.4473539888858795 0.874770998954773 -0.18614600598812103 -0.6899160146713257 0.5447930097579956 -0.4766719937324524
          -0.13771800696849823 0.9857580065727234 -0.09650900214910507 0.028355000540614128 0.997622013092041 0.06282799690961838
          -0.5117989778518677 -0.26947399973869324 -0.8157489895820618 -0.4517669975757599 -0.41580700874328613 -0.7893109917640686
          -0.5624809861183167 -0.06451799720525742 -0.8242890238761902 -0.4426890015602112 -0.4412339925765991 -0.780601978302002
          -0.542277991771698 0.1475529968738556 -0.8271409869194031 -0.5517719984054565 -0.018588999286293983 -0.8337879776954651
          -0.8003339767456055 0.14403000473976135 -0.5819969773292542 -0.7232769727706909 -0.14379499852657318 -0.6754209995269775
          -0.8774430155754089 0.2300020009279251 -0.4209440052509308 -0.9823110103607178 0.029555000364780426 -0.18490800261497498
          -0.9116799831390381 -0.10352300107479095 -0.3976469933986664 -0.34588301181793213 -0.5274350047111511 -0.7760009765625
          -0.23368500173091888 -0.7547699809074402 -0.6129540205001831 -0.24017299711704254 -0.6768100261688232 -0.6958780288696289
          -0.37868499755859375 -0.5837230086326599 -0.7182379961013794 -0.3332279920578003 -0.48279300332069397 -0.8098580241203308
          -0.38065800070762634 -0.5124220252037048 -0.7697550058364868 -0.572754979133606 -0.5630480051040649 -0.5957589745521545
          -0.7872629761695862 -0.27143698930740356 -0.5536590218544006 -0.5583450198173523 0.5113710165023804 -0.6532620191574097
          -0.3518739938735962 0.8558279871940613 -0.37913501262664795 -0.02625099942088127 0.9932090044021606 -0.11334700137376785
          0.16030900180339813 0.9787830114364624 0.12761500477790833 0.30871400237083435 0.8900610208511353 0.3353919982910156
          0.1337299942970276 0.965038001537323 0.22542999684810638 0.4426969885826111 0.869691014289856 0.21830600500106812
          0.32195600867271423 0.8402990102767944 0.43616700172424316 0.4017060101032257 0.8105019927024841 0.42628398537635803
          0.2141290009021759 0.9344940185546875 0.28437599539756775 0.3426769971847534 0.8295220136642456 0.44098299741744995
          -0.21789300441741943 0.9759629964828491 0.00443900004029274 -0.7742319703102112 0.6070700287818909 -0.1789720058441162
          -0.47637200355529785 0.8707680106163025 0.12178800255060196 -0.72154700756073 0.691012978553772 0.043255001306533813
          0.11376900225877762 0.9725760221481323 0.20285899937152863 0.01172299962490797 0.9802299737930298 0.19751399755477905
          -0.39479899406433105 -0.5235139727592468 -0.7550269961357117 -0.5495100021362305 -0.22823099792003632 -0.8037089705467224
          -0.5229700207710266 -0.12326300144195557 -0.8433910012245178 -0.4564720094203949 -0.42880600690841675 -0.7795889973640442
          -0.603082001209259 0.03314900025725365 -0.7969899773597717 -0.521369993686676 0.8014140129089355 -0.29310300946235657
          -0.9247339963912964 -0.2186100035905838 -0.31157100200653076 -0.9469460248947144 0.30796700716018677 -0.09192200005054474
          -0.9070420265197754 0.3941259980201721 0.14811700582504272 -0.9622039794921875 -0.18368400633335114 0.20105800032615662
          -0.9375069737434387 0.02389400079846382 0.3471449911594391 -0.9385949969291687 -0.24757100641727448 0.2403090000152588
          -0.15695999562740326 -0.7860469818115234 -0.5979070067405701 -0.3400470018386841 -0.6373440027236938 -0.6914920210838318
          -0.23534700274467468 -0.7531139850616455 -0.6143540143966675 -0.13829700648784637 -0.8590189814567566 -0.4929110109806061
          -0.02749899961054325 -0.9073960185050964 -0.4193759858608246 -0.06774500012397766 -0.854058027267456 -0.5157480239868164
          -0.06917700171470642 -0.8313180208206177 -0.551476001739502 -0.11416299641132355 -0.7342159748077393 -0.6692489981651306
          -0.24868500232696533 -0.5948470234870911 -0.7644029855728149 -0.26016899943351746 -0.5614799857139587 -0.7855269908905029
          -0.3014580011367798 -0.5767800211906433 -0.7592419981956482 -0.46523600816726685 -0.7223359942436218 -0.511650025844574
          -0.7806789875030518 -0.414359986782074 -0.4678100049495697 -0.674036979675293 -0.7064779996871948 -0.2157839983701706
          -0.8130180239677429 -0.5716350078582764 -0.11061300337314606 -0.9439600110054016 -0.28945600986480713 -0.1586029976606369
          -0.9686790108680725 -0.1494709998369217 0.19829300045967102 -0.7099069952964783 -0.01675800047814846 -0.7040960192680359
          -0.6888049840927124 0.5220410227775574 -0.5030109882354736 -0.252142995595932 0.967494010925293 0.0194690003991127
          -0.027888000011444092 0.9960029721260071 -0.08485200256109238 0.27414101362228394 0.9334369897842407 0.23138900101184845
          0.18858300149440765 0.9521380066871643 0.24056200683116913 0.3143230080604553 0.8856779932975769 0.3417229950428009
          0.3557159900665283 0.8290799856185913 0.43138399720191956 0.33674100041389465 0.8512740135192871 0.402415007352829
          0.40469101071357727 0.8104060292243958 0.4236370027065277 0.41029900312423706 0.7893419861793518 0.4567199945449829
          0.34053099155426025 0.8438509702682495 0.4146740138530731 0.2678009867668152 0.8880590200424194 0.37367600202560425
          -0.11635000258684158 0.9358029961585999 0.3327690064907074 -0.6061789989471436 0.722536027431488 0.332397997379303
          0.1932079941034317 0.9004669785499573 0.3896529972553253 -0.327224999666214 -0.560371994972229 -0.7608590126037598
          -0.28582099080085754 -0.6829590201377869 -0.67221599817276 -0.5476869940757751 -0.257858008146286 -0.7959570288658142
          -0.47399699687957764 -0.4263859987258911 -0.7704039812088013 -0.5974590182304382 0.7860910296440125 -0.15844400227069855
          -0.21897199749946594 0.954006016254425 0.20475099980831146 -0.7826759815216064 -0.34475499391555786 0.5182300209999084
          -0.74058997631073 -0.15389500558376312 0.6540960073471069 -0.7908340096473694 -0.44871199131011963 0.4162209928035736
          -0.8762789964675903 -0.2514429986476898 0.4109880030155182 -0.6852059960365295 0.42048999667167664 0.5947110056877136
          -0.13426099717617035 -0.8325110077857971 -0.5374940037727356 -0.08121100068092346 -0.8770840167999268 -0.47342100739479065
          -0.06914199888706207 -0.891057014465332 -0.44859400391578674 0.007199000101536512 -0.9367550015449524 -0.34991198778152466
          0.012943999841809273 -0.9353479743003845 -0.35349199175834656 0.155349001288414 -0.9584670066833496 -0.23917999863624573
          0.03559200093150139 -0.927685022354126 -0.37166500091552734 0.008294999599456787 -0.8464990258216858 -0.532325029373169
          0.09644699841737747 -0.9139410257339478 -0.3942199945449829 0.006624000146985054 -0.8112120032310486 -0.5847150087356567
          -0.12488800287246704 -0.6868699789047241 -0.715969979763031 -0.2164590060710907 -0.6161109805107117 -0.757332980632782
          0.04443899914622307 -0.8374300003051758 -0.5447360277175903 -0.2619520127773285 -0.737043023109436 -0.6230159997940063
          -0.16088199615478516 -0.681676983833313 -0.7137460112571716 -0.2588759958744049 -0.8706640005111694 -0.4182420074939728
          -0.44801101088523865 -0.8780800104141235 -0.16811400651931763 -0.8970320224761963 -0.43999800086021423 -0.041666001081466675
          -0.6989120244979858 -0.7129960060119629 0.05619699880480766 -0.7948629856109619 -0.606332004070282 0.023555999621748924
          -0.7549120187759399 -0.3941890001296997 0.5241400003433228 -0.9367820024490356 -0.241690993309021 0.253030002117157
          -0.7164750099182129 0.05659300088882446 0.6953129768371582 -0.5814399719238281 -0.4884200096130371 -0.6506720185279846
          -0.7516469955444336 0.4819819927215576 -0.4502449929714203 -0.8087329864501953 0.09951700270175934 -0.579695999622345
          -0.7518029808998108 -0.19595099985599518 -0.6295999884605408 0.054857999086380005 0.9525550007820129 0.2993820011615753
          -0.12702800333499908 0.9434450268745422 0.3062269985675812 0.21564899384975433 0.8843680024147034 0.4139910042285919
          0.25928598642349243 0.8509150147438049 0.4568530023097992 0.34267398715019226 0.7797179818153381 0.5240370035171509
          0.42250901460647583 0.7313690185546875 0.5353360176086426 0.44973498582839966 0.8018239736557007 0.3934670090675354
          0.3681739866733551 0.8294540047645569 0.4200649857521057 0.35888200998306274 0.8648160099983215 0.3511359989643097
          0.40869298577308655 0.8476049900054932 0.33843299746513367 0.4368849992752075 0.7498469948768616 0.49685099720954895
          0.38406699895858765 0.8517990112304688 0.3562740087509155 0.31354400515556335 0.8451200127601624 0.43296900391578674
          0.03658200055360794 0.8459219932556152 0.5320510268211365 -0.4331139922142029 0.7011669874191284 0.5663719773292542
          0.2317579984664917 0.8640140295028687 0.44695401191711426 -0.2781899869441986 -0.6489480137825012 -0.7081509828567505
          -0.21260400116443634 -0.7452160120010376 -0.6320229768753052 -0.1332540065050125 -0.8313450217247009 -0.539546012878418
          -0.33746999502182007 0.8827869892120361 0.3268029987812042 -0.23790299892425537 0.9185159802436829 0.3158000111579895
          0.1813810020685196 0.8459749817848206 0.50142502784729 0.11137200146913528 0.9300569891929626 0.35012900829315186
          -0.006231999956071377 0.8876150250434875 0.46054500341415405 -0.7313550114631653 -0.4553860127925873 0.5076839923858643
          -0.6900150179862976 -0.05336499959230423 0.7218250036239624 -0.7514910101890564 -0.29033899307250977 0.5924220085144043
          -0.8113030195236206 -0.5285829901695251 0.2497750073671341 -0.8283920288085938 -0.5103650093078613 0.23085500299930573
          -0.70448899269104 0.17051100730895996 0.6889269948005676 -0.6702759861946106 -0.11746899783611298 0.7327560186386108
          -0.5841860175132751 0.35539400577545166 0.7296720147132874 0.008640999905765057 -0.9242839813232422 -0.38160601258277893
          0.03228199854493141 -0.9413440227508545 -0.3359000086784363 0.11448600143194199 -0.9621760249137878 -0.2472030073404312
          0.20235499739646912 -0.934457004070282 -0.29298800230026245 0.26572099328041077 -0.9544039964675903 -0.13603100180625916
          0.3645240068435669 -0.9260380268096924 -0.09785699844360352 0.2575640082359314 -0.9456610083580017 -0.19845899939537048
          0.1445939987897873 -0.8981130123138428 -0.4153130054473877 -0.04865799844264984 -0.8731709718704224 -0.4849799871444702
          0.09210799634456635 -0.8938490152359009 -0.4388050138950348 -0.2593989968299866 -0.9338260293006897 -0.2463349997997284
          -0.09627100080251694 -0.9710710048675537 -0.21852299571037292 -0.27302101254463196 -0.9616109728813171 -0.027628999203443527
          -0.39702901244163513 -0.9161379933357239 0.05530700087547302 -0.5296229720115662 -0.8407430052757263 0.11247800290584564
          -0.5420460104942322 -0.48447901010513306 0.6866340041160583 -0.5097839832305908 0.0519150011241436 0.8587350249290466
          -0.37775400280952454 -0.8669530153274536 0.32510799169540405 -0.40679699182510376 -0.11866100132465363 0.9057790040969849
          -0.3337920010089874 -0.170414000749588 0.9271150231361389 -0.31279900670051575 -0.6591749787330627 -0.6838459968566895
          -0.7462970018386841 -0.2190070003271103 -0.6285510063171387 -0.5367720127105713 -0.6130160093307495 -0.5797299742698669
          -0.39820900559425354 -0.695592999458313 -0.5979800224304199 -0.724157989025116 0.2955789864063263 -0.6230800151824951
          -0.6153799891471863 0.7170060276985168 -0.32743000984191895 -0.7332450151443481 0.09531699866056442 -0.6732509732246399
          0.15799599885940552 0.8785480260848999 0.45076701045036316 0.24719099700450897 0.8248040080070496 0.5085219740867615
          0.4377039968967438 0.6612629890441895 0.6092180013656616 0.3455730080604553 0.7416859865188599 0.5748760104179382
          0.3747990131378174 0.875914990901947 0.30380699038505554 0.4415990114212036 0.8350589871406555 0.3281260132789612
          0.37919101119041443 0.8477399945259094 0.3708780109882355 0.43225300312042236 0.7604029774665833 0.4847109913825989
          0.33562999963760376 0.8946959972381592 0.2947410047054291 0.3070499897003174 0.915427029132843 0.2602199912071228
          -0.1560090035200119 0.7343549728393555 0.6605939865112305 -0.5191699862480164 0.5711759924888611 0.6357830166816711
          0.21539300680160522 0.8039469718933105 0.5543239712715149 0.3325900137424469 0.7994580268859863 0.500249981880188
          0.05438699945807457 0.8445180058479309 0.5327590107917786 -0.18438799679279327 -0.7652950286865234 -0.6167050004005432
          -0.24479199945926666 -0.7179449796676636 -0.6516379714012146 -0.05753900110721588 -0.8952010273933411 -0.44193199276924133
          -0.395020991563797 0.9152640104293823 0.07906199991703033 -0.19649599492549896 0.929099977016449 0.31330999732017517
          -0.030859999358654022 0.8415830135345459 0.5392450094223022 0.01583000086247921 0.7901920080184937 0.612654983997345
          0.08429600298404694 0.8291500210762024 0.5526340007781982 0.2839359939098358 0.7917330265045166 0.5408689975738525
          0.21353699266910553 0.7614619731903076 0.6120269894599915 0.3827509880065918 0.6469640135765076 0.6594989895820618
          -0.7658830285072327 -0.4843679964542389 0.4228610098361969 -0.5242230296134949 -0.2462639957666397 0.8151959776878357
          -0.6141949892044067 -0.6945099830627441 0.3747270107269287 -0.6113529801368713 -0.5990930199623108 0.5170450210571289
          -0.42071598768234253 -0.36423400044441223 0.8308619856834412 -0.28858500719070435 0.3904910087585449 0.874206006526947
          0.15239199995994568 -0.9738919734954834 -0.16826200485229492 0.0846719965338707 -0.9833660125732422 -0.16068999469280243
          0.2754110097885132 -0.9586120247840881 -0.07219099998474121 0.24265199899673462 -0.9294540286064148 -0.27791300415992737
          0.5340610146522522 -0.8408989906311035 0.087567999958992 0.4952329993247986 -0.8666409850120544 0.06063999980688095
          0.29307401180267334 -0.9448360204696655 -0.14626100659370422 0.6775000095367432 -0.7031909823417664 0.21567699313163757
          0.26577499508857727 -0.9485390186309814 -0.17215600609779358 0.13478399813175201 -0.9554169774055481 -0.2626990079879761
          0.14199300110340118 -0.9895089864730835 -0.026635000482201576 -0.13486899435520172 -0.990697979927063 0.018123000860214233
          -0.33870500326156616 -0.41914600133895874 0.8423749804496765 -0.4058679938316345 -0.13373500108718872 0.9040939807891846
          -0.1494539976119995 -0.894074022769928 0.42225000262260437 -0.4745759963989258 -0.30615898966789246 0.8252540230751038
          -0.31450700759887695 -0.7250030040740967 -0.6127439737319946 -0.6418769955635071 -0.18169300258159637 -0.744970977306366
          -0.321491003036499 -0.758234977722168 -0.5672060251235962 -0.4146510064601898 -0.5750300288200378 -0.705269992351532
          -0.6173959970474243 0.4379329979419708 -0.6534810066223145 -0.6449840068817139 0.2869270145893097 -0.7082859873771667
          -0.6062560081481934 0.08227100223302841 -0.7910029888153076 -0.49997198581695557 0.7316330075263977 -0.4634009897708893
          -0.44150200486183167 0.8873230218887329 -0.13317200541496277 0.47419700026512146 0.6048309803009033 0.6397780179977417
          0.3736889958381653 0.838687002658844 0.3961839973926544 0.395999014377594 0.8045780062675476 0.44253700971603394
          0.37216898798942566 0.7973150014877319 0.47516199946403503 0.48397499322891235 0.7501220107078552 0.45065099000930786
          0.5395219922065735 0.7614129781723022 0.35939499735832214 0.5471879839897156 0.665336012840271 0.5078529715538025
          0.5798789858818054 0.7096179723739624 0.40022799372673035 0.5864289999008179 0.634028971195221 0.5040919780731201
          0.003992999903857708 0.7156909704208374 0.6984050273895264 0.16528700292110443 0.6755080223083496 0.7185879945755005
          -0.23068100214004517 -0.8030840158462524 -0.5494019985198975 -0.06308099627494812 -0.9266510009765625 -0.37059101462364197
          -0.1521099954843521 0.9852659702301025 0.07818599790334702 -0.01995299942791462 0.9288939833641052 0.36980700492858887
          0.16037499904632568 0.7670360207557678 0.6212369799613953 0.09987500309944153 0.8767070174217224 0.4705420136451721
          0.1296200007200241 0.7907630205154419 0.5982409715652466 0.18567399680614471 0.7039899826049805 0.6855090260505676
          0.0954200029373169 0.7774149775505066 0.6217089891433716 0.30719900131225586 0.6247699856758118 0.7178379893302917
          0.4361859858036041 0.5175960063934326 0.7360950112342834 0.48026999831199646 0.5432659983634949 0.6886240243911743
          0.4343560039997101 0.5640929937362671 0.7022349834442139 -0.4854539930820465 -0.619799017906189 0.6165909767150879
          -0.3855249881744385 -0.7242810130119324 0.5716530084609985 -0.4234359860420227 -0.1749500036239624 0.8888729810714722
          -0.5266050100326538 -0.6285529732704163 0.5723710060119629 -0.16953499615192413 0.2152869999408722 0.9617220163345337
          -0.4116530120372772 0.03998899832367897 0.9104629755020142 0.2251559942960739 -0.9705659747123718 -0.0854789987206459
          0.25572898983955383 -0.9649919867515564 -0.058246999979019165 -0.1896200031042099 -0.9301949739456177 -0.3142949938774109
          -0.07126999646425247 -0.9913989901542664 -0.10976800322532654 0.24859200417995453 -0.9680719971656799 -0.03222399950027466
          0.25642699003219604 -0.9665539860725403 0.0042409999296069145 0.11690299957990646 -0.9868530035018921 0.11160500347614288
          0.24304400384426117 -0.9630820155143738 0.11576899886131287 0.5549939870834351 -0.8106189966201782 0.18675899505615234
          0.3852120041847229 -0.9141340255737305 0.1263750046491623 0.28653499484062195 -0.92426997423172 -0.252236008644104
          0.31944000720977783 -0.9426310062408447 -0.09697800129652023 0.775363028049469 -0.47761398553848267 0.41315600275993347
          0.7049009799957275 -0.6407439708709717 0.3042390048503876 0.7548859715461731 -0.5806580185890198 0.30493199825286865
          0.5675110220909119 -0.8040140271186829 0.17746299505233765 0.3766210079193115 -0.9209179878234863 0.10033100098371506
          0.7586550116539001 -0.5166630148887634 0.39686399698257446 0.8002520203590393 -0.47193801403045654 0.3699600100517273
          0.2676360011100769 -0.9494500160217285 -0.16405799984931946 0.3205159902572632 -0.9458929896354675 0.050558000802993774
          0.3074379861354828 -0.9222589731216431 0.23434999585151672 -0.09125600010156631 -0.8793380260467529 0.4673730134963989
          -0.4893209934234619 -0.3185180127620697 0.8118569850921631 -0.45663100481033325 -0.623714029788971 0.6344050168991089
          -0.6409590244293213 -0.43059900403022766 0.6354179978370667 -0.308771014213562 -0.7248560190200806 -0.6158279776573181
          -0.4951319992542267 -0.20099100470542908 -0.8452489972114563 -0.2539460062980652 -0.6840659976005554 -0.6837869882583618
          -0.1344349980354309 -0.6878100037574768 -0.7133340239524841 -0.36252400279045105 -0.3141399919986725 -0.877435028553009
          -0.5554749965667725 0.41248899698257446 -0.7220110297203064 -0.576774001121521 0.26259100437164307 -0.7735490202903748
          -0.5001819729804993 0.038144998252391815 -0.8650799989700317 -0.3466449975967407 0.8252099752426147 -0.4459429979324341
          0.5389400124549866 0.6315789818763733 0.5573610067367554 0.547681987285614 0.5722169876098633 0.610418975353241
          0.3539780080318451 0.7122129797935486 0.6061789989471436 0.4723300039768219 0.5706149935722351 0.6717910170555115
          0.500806987285614 0.61353999376297 0.6105409860610962 0.5917500257492065 0.6688730120658875 0.4499340057373047
          0.804078996181488 0.08469600230455399 0.5884590148925781 0.8323929905891418 0.23938700556755066 0.4998149871826172
          0.730309009552002 0.26409199833869934 0.6300029754638672 0.763463020324707 0.12688300013542175 0.6332650184631348
          0.7021899819374084 0.361735999584198 0.6132509708404541 0.22635099291801453 0.5856890082359314 0.7782890200614929
          0.006167999934405088 0.4115540087223053 0.9113640189170837 -0.3158479928970337 -0.8047990202903748 -0.5025320053100586
          0.10353899747133255 0.9385910034179688 0.32912999391555786 0.1127069965004921 0.9894639849662781 0.09087599813938141
          0.29771700501441956 0.8477780222892761 0.4389039874076843 0.45243901014328003 0.7775490283966064 0.43671101331710815
          0.28723201155662537 0.7320219874382019 0.6177719831466675 0.3841480016708374 0.7655320167541504 0.5161309838294983
          0.3720099925994873 0.8262109756469727 0.4230650067329407 0.2291399985551834 0.8563500046730042 0.46277299523353577
          0.20516200363636017 0.7707309722900391 0.6032270193099976 0.14191299676895142 0.6783620119094849 0.7208920121192932
          0.2478020042181015 0.5162460207939148 0.8198069930076599 0.3027229905128479 0.5669599771499634 0.766103982925415
          0.157382994890213 0.6098979711532593 0.7766950130462646 0.3653689920902252 0.5263839960098267 0.76774001121521
          0.4270760118961334 0.4621489942073822 0.7771900296211243 0.4932909905910492 0.23207199573516846 0.8383359909057617
          0.6330549716949463 0.15224400162696838 0.7589880228042603 0.4548180103302002 0.5933910012245178 0.6640989780426025
          0.6396239995956421 0.46382901072502136 0.6129800081253052 -0.6120120286941528 -0.49267899990081787 0.6186339855194092
          -0.04444500058889389 0.1817069947719574 0.9823480248451233 -0.41822999715805054 -0.37439098954200745 0.8275960087776184
          -0.6950809955596924 -0.548454999923706 0.46482300758361816 -0.1384049952030182 -0.9878910183906555 -0.07011199742555618
          -0.09036900103092194 -0.9672340154647827 -0.23725999891757965 -0.03901199996471405 -0.991832971572876 -0.1214279979467392
          0.09177099913358688 -0.9948300123214722 0.04349200055003166 0.21781499683856964 -0.9261789917945862 0.30781400203704834
          0.20203399658203125 -0.958391010761261 0.20166799426078796 0.2335910052061081 -0.9606950283050537 0.15000499784946442
          0.6021209955215454 -0.5178670287132263 0.6076710224151611 0.3656280040740967 -0.8319299817085266 0.41738298535346985
          0.6686279773712158 -0.544376015663147 0.5065479874610901 0.7022950053215027 -0.561011016368866 0.43823298811912537
          0.3257000148296356 -0.932964026927948 0.1532910019159317 0.8192200064659119 -0.13730299472808838 0.5568010210990906
          0.8308470249176025 -0.2524310052394867 0.49595698714256287 0.816366970539093 -0.07566499710083008 0.5725550055503845
          0.7911189794540405 -0.44053199887275696 0.4243369996547699 0.6004409790039062 -0.7064110040664673 0.37477099895477295
          0.36296001076698303 -0.8555870056152344 0.36909499764442444 0.25812700390815735 -0.870809018611908 0.4184040129184723
          0.11261700093746185 -0.8479670286178589 0.5179470181465149 -0.5189189910888672 -0.5332180261611938 0.668133020401001
          -0.4700619876384735 -0.5412960052490234 0.6971660256385803 -0.7193930149078369 -0.34793001413345337 0.6011809706687927
          -0.20658600330352783 -0.6537719964981079 -0.7279450297355652 -0.3131360113620758 -0.7084540128707886 -0.6324859857559204
          -0.09885600209236145 -0.6316369771957397 -0.7689350247383118 0.2096789926290512 -0.5142959952354431 -0.8315860033035278
          -0.01594099961221218 -0.5488709807395935 -0.8357549905776978 -0.10589399933815002 -0.6164770126342773 -0.7802190184593201
          -0.3191570043563843 -0.21852700412273407 -0.9221630096435547 0.020367000252008438 -0.45956599712371826 -0.887910008430481
          -0.45169299840927124 0.32845398783683777 -0.8295130133628845 -0.18903400003910065 -0.019310999661684036 -0.981781005859375
          -0.18214300274848938 0.7974609732627869 -0.5752210021018982 0.17099399864673615 0.9809929728507996 -0.09172900021076202
          0.6368899941444397 0.3696190118789673 0.6765739917755127 0.7736780047416687 0.10467900335788727 0.6248720288276672
          0.3438340127468109 0.4547320008277893 0.821582019329071 0.5386009812355042 0.3543640077114105 0.7644180059432983
          0.7439650297164917 -0.029103999957442284 0.667585015296936 -0.28072699904441833 -0.8203840255737305 -0.4981600046157837
          0.34508100152015686 0.8941760063171387 0.28525200486183167 0.650888979434967 0.7240660190582275 0.22819499671459198
          0.47442400455474854 0.8454660177230835 0.24517099559307098 0.3380790054798126 0.8059489727020264 0.4859510064125061
          0.5946239829063416 0.7980809807777405 0.0974150002002716 0.6584399938583374 0.7192710041999817 0.2215999960899353
          0.5286080241203308 0.7449049949645996 0.4070500135421753 0.299809992313385 0.4501509964466095 0.8411170244216919
          0.3698430061340332 0.40110599994659424 0.8380510210990906 0.2445099949836731 0.3819360136985779 0.8912580013275146
          0.3336690068244934 0.4932340085506439 0.8033589720726013 0.40119001269340515 0.47237899899482727 0.7847959995269775
          0.5358830094337463 -0.11118800193071365 0.8369389772415161 -0.6565700173377991 -0.4993239939212799 0.565322995185852
          0.14586800336837769 0.07389699667692184 0.9865400195121765 -0.10835500061511993 -0.3786360025405884 0.9191809892654419
          -0.3953680098056793 -0.5299999713897705 0.7501890063285828 -0.10370100289583206 -0.9387000203132629 -0.3287679851055145
          0.22425700724124908 -0.9581199884414673 0.17808599770069122 0.12074699997901917 -0.9926660060882568 -0.005896999966353178
          0.35707399249076843 -0.8173729777336121 0.45210498571395874 0.4728330075740814 -0.43971800804138184 0.7635949850082397
          0.7614420056343079 -0.23892199993133545 0.6025969982147217 0.7556999921798706 0.07233399897813797 0.6509109735488892
          0.592494010925293 -0.3597419857978821 0.7207890152931213 0.22516599297523499 -0.806306004524231 0.546966016292572
          0.42573899030685425 -0.6101099848747253 0.6682159900665283 -0.01666099950671196 -0.7436599731445312 0.6683499813079834