<?xml version="1.0"?>
<VTKFile type="PolyData" version="0.1" byte_order="LittleEndian" header_type="UInt32" compressor="vtkZLibDataCompressor">
  <PolyData>
    <Piece NumberOfPoints="1485" NumberOfVerts="0" NumberOfLines="0" NumberOfStrips="0" NumberOfPolys="3006">
      <PointData Normals="Normals">
        <DataArray type="Float32" Name="Normals" NumberOfComponents="3" format="ascii" RangeMin="0.9999991921871635" RangeMax="1.0000007739754164">
          -0.84477299451828 -0.4515779912471771 -0.28711599111557007 -0.7358189821243286 -0.6756020188331604 -0.046170998364686966
          -0.7080039978027344 -0.7050840258598328 0.03982499986886978 -0.7898499965667725 -0.6091510057449341 -0.07122500240802765
          -0.6880559921264648 -0.5908550024032593 -0.42127200961112976 -0.7538610100746155 -0.38844799995422363 -0.5299069881439209
          -0.7180950045585632 -0.6958889961242676 0.008832000195980072 -0.738090991973877 -0.673874020576477 -0.03340800106525421
          -0.7034649848937988 -0.7073500156402588 -0.06922200322151184 -0.9246090054512024 -0.012597999535501003 -0.3807089924812317
          -0.7191529870033264 -0.6827930212020874 -0.12889200448989868 -0.8923810124397278 -0.44569799304008484 -0.07077299803495407
          -0.513933002948761 -0.1199830025434494 -0.8493980169296265 -0.7872580289840698 -0.12329500168561935 -0.6041719913482666
          -0.877481997013092 -0.01723800040781498 -0.47929999232292175 -0.7438129782676697 -0.6665719747543335 -0.049233000725507736
          -0.7052199840545654 -0.6978819966316223 -0.12499699741601944 -0.6449139714241028 -0.7560200095176697 -0.11189399659633636
          -0.7369099855422974 -0.6469519734382629 -0.1960040032863617 -0.9157429933547974 0.3274720013141632 -0.2327589988708496
          -0.9556379914283752 -0.2862839996814728 -0.06926500052213669 -0.5634710192680359 -0.7007949948310852 -0.4374769926071167
          -0.33152300119400024 -0.4953790009021759 -0.8029270172119141 -0.6580190062522888 0.23993900418281555 -0.7137510180473328
          -0.8456209897994995 0.19559399783611298 -0.49665600061416626 -0.8079739809036255 0.27449798583984375 -0.5213720202445984
          -0.7755249738693237 0.3108240067958832 -0.549498975276947 -0.8529149889945984 0.24073700606822968 -0.4632290005683899
          -0.81318199634552 -0.5819950103759766 0.004083000123500824 -0.7790520191192627 -0.6257659792900085 -0.03865300118923187
          -0.7303100228309631 -0.6830599904060364 -0.008720999583601952 -0.675478994846344 -0.7372699975967407 0.0126740001142025
          -0.7102869749069214 0.5139930248260498 -0.4809409976005554 -0.8055170178413391 0.3736419975757599 -0.4599280059337616
          -0.5250840187072754 -0.8450930118560791 0.10051999986171722 -0.6743890047073364 -0.7327730059623718 -0.09079699963331223
          -0.9272599816322327 -0.37419798970222473 -0.01285099983215332 -0.9018869996070862 0.43062400817871094 -0.03409099951386452
          -0.9939290285110474 -0.10874000191688538 0.01674400083720684 -0.06636500358581543 -0.30753201246261597 -0.9492210149765015
          -0.1699499934911728 -0.1439729928970337 -0.9748790264129639 -0.29119598865509033 -0.719726026058197 -0.6302369832992554
          -0.193121999502182 -0.5731469988822937 -0.7963709831237793 -0.23220199346542358 0.16880199313163757 -0.9579079747200012
          -0.29488399624824524 0.4158479869365692 -0.8602989912033081 -0.700065016746521 0.5028449892997742 -0.5070059895515442
          -0.7134630084037781 0.527239978313446 -0.4615060091018677 -0.7164070010185242 -0.6898090243339539 0.10452000051736832
          -0.41150298714637756 -0.9106330275535583 -0.03759799897670746 -0.5099499821662903 -0.8238890171051025 -0.24729999899864197
          -0.4733940064907074 -0.8348000049591064 0.28108298778533936 -0.5540450215339661 -0.8121709823608398 0.1827940046787262
          -0.5409899950027466 0.7818589806556702 -0.3098819851875305 -0.4049850106239319 -0.8361549973487854 0.36990898847579956
          -0.693897008895874 -0.7148100137710571 0.08691199868917465 -0.3810189962387085 -0.8255019783973694 0.416377991437912
          -0.5948179960250854 -0.7488210201263428 0.2923330068588257 -0.8834139704704285 -0.4415059983730316 0.15700800716876984
          -0.5524880290031433 0.8098520040512085 -0.19722099602222443 -0.9390559792518616 0.3427169919013977 -0.026830999180674553
          -0.9547020196914673 -0.2620350122451782 0.14100199937820435 -0.9584239721298218 0.22723600268363953 -0.17258700728416443
          0.03996799886226654 0.14556699991226196 -0.9885410070419312 0.12081100046634674 -0.37064000964164734 -0.9208859801292419
          -0.12244699895381927 0.3420400023460388 -0.9316740036010742 -0.45786601305007935 0.5502139925956726 -0.6983000040054321
          -0.3663040101528168 0.7558929920196533 -0.5426300168037415 -0.5864940285682678 0.7009980082511902 -0.40574100613594055
          -0.4342750012874603 -0.8729820251464844 0.22205400466918945 -0.029458999633789062 -0.9733679890632629 -0.22734799981117249
          -0.0783580020070076 -0.887444019317627 -0.4542050063610077 -0.24228399991989136 -0.9292610287666321 -0.27887600660324097
          -0.27199000120162964 -0.8865500092506409 0.3742330074310303 -0.3358980119228363 -0.8458150029182434 0.4144499897956848
          -0.36059701442718506 0.9218289852142334 -0.14213299751281738 -0.2943199872970581 0.9550979733467102 -0.03409799933433533
          -0.3535270094871521 0.935342013835907 -0.012393999844789505 -0.15870599448680878 -0.8352760076522827 0.5264279842376709
          -0.2948170006275177 -0.8276140093803406 0.47763898968696594 -0.1347530037164688 -0.8340229988098145 0.5350210070610046
          -0.484934002161026 -0.7270870208740234 0.48598700761795044 -0.39811599254608154 -0.7786340117454529 0.48500800132751465
          -0.7229880094528198 -0.6015539765357971 0.3397369980812073 -0.9316580295562744 -0.3012459874153137 0.20313699543476105
          -0.8577349781990051 -0.4302879869937897 0.28132399916648865 -0.5260199904441833 0.8462669849395752 -0.08446600288152695
          -0.8372979760169983 0.49918699264526367 -0.22303299605846405 -0.9673420190811157 0.08471599966287613 -0.23889900743961334
          -0.6788120269775391 0.5714690089225769 -0.46112701296806335 0.1616639941930771 0.10114099830389023 -0.9816489815711975
          0.24784700572490692 -0.4693300127983093 -0.8475260138511658 0.3569580018520355 -0.6487730145454407 -0.6720679998397827
          0.05830499902367592 -0.7711229920387268 -0.6340109705924988 -0.03274799883365631 0.43371298909187317 -0.9004560112953186
          0.14711299538612366 0.424576997756958 -0.8933600187301636 -0.015479999594390392 0.5214710235595703 -0.8531290292739868
          -0.1915220022201538 0.6193619966506958 -0.7613869905471802 -0.07423000037670135 0.7204030156135559 -0.6895719766616821
          -0.05811600014567375 0.7919939756393433 -0.6077569723129272 -0.4704050123691559 0.8530210256576538 -0.2259960025548935
          -0.21839700639247894 0.8390359878540039 -0.49831798672676086 -0.3570919930934906 0.908519983291626 -0.2169709950685501
          0.03674900159239769 -0.9967629909515381 0.07150900363922119 -0.12281300127506256 -0.9254329800605774 0.35845598578453064
          -0.13133199512958527 -0.8920829892158508 0.4323650002479553 -0.086046002805233 -0.89580899477005 0.4360310137271881
          -0.18196600675582886 -0.862322986125946 0.4725329875946045 -0.25697198510169983 0.9663630127906799 -0.010418999940156937
          -0.2863979935646057 0.8934569954872131 -0.34599199891090393 -0.4273639917373657 0.8477540016174316 -0.3141239881515503
          -0.581384003162384 0.7844110131263733 -0.21608300507068634 0.009723999537527561 -0.847760021686554 0.5302910208702087
          0.06135899946093559 -0.8075540065765381 0.586592972278595 -0.011216999962925911 -0.8677449822425842 0.49688199162483215
          -0.07102599740028381 -0.870507001876831 0.48700499534606934 -0.2700609862804413 -0.8365359902381897 0.4767340123653412
          -0.3185420036315918 -0.8107489943504333 0.4911389946937561 -0.63298100233078 -0.664683997631073 0.3968999981880188
          -0.6128929853439331 -0.7294449806213379 0.3037619888782501 -0.34956300258636475 -0.8080440163612366 0.47420400381088257
          -0.4311229884624481 -0.8146039843559265 0.38801199197769165 -0.7948970198631287 -0.5242099761962891 0.30552101135253906
          -0.6939740180969238 0.641569972038269 -0.32678401470184326 -0.9320819973945618 -0.36065399646759033 0.033939000219106674
          -0.9767739772796631 -0.17036999762058258 -0.12994499504566193 -0.9587820172309875 -0.07452499866485596 -0.2741970121860504
          -0.7479040026664734 0.46358001232147217 -0.47511500120162964 -0.764689028263092 0.39083001017570496 -0.5123500227928162
          0.2410929948091507 0.15921400487422943 -0.9573529958724976 0.3618839979171753 -0.29556700587272644 -0.8841270208358765
          0.31733399629592896 0.03768400102853775 -0.9475650191307068 0.5667679905891418 -0.7090929746627808 -0.4194769859313965
          0.6119430065155029 -0.4467040002346039 -0.6526730060577393 0.31252598762512207 -0.8939869999885559 -0.3211140036582947
          0.1256210058927536 -0.9155279994010925 -0.3821370005607605 0.36456599831581116 0.3442460000514984 -0.8652089834213257
          -0.027326000854372978 0.6195880174636841 -0.7844510078430176 0.12781399488449097 0.614251971244812 -0.778689980506897
          0.1359270066022873 0.730006992816925 -0.6697859764099121 0.007172999903559685 0.8592420220375061 -0.5115200281143188
          -0.18286900222301483 0.917277991771698 -0.35377898812294006 0.1710350066423416 -0.9459069967269897 0.27569499611854553
          0.3100000023841858 -0.9428769946098328 -0.12199199944734573 -0.33739200234413147 0.9352419972419739 0.10718300193548203
          -0.3056569993495941 0.9518210291862488 -0.024709999561309814 -0.31181201338768005 0.9128270149230957 -0.2636660039424896
          -0.1834540069103241 0.8030170202255249 -0.5670170187950134 -0.1985899955034256 0.9079909920692444 -0.3689369857311249
          -0.3943670094013214 0.7550510168075562 -0.5238059759140015 -0.5157790184020996 0.7760679721832275 -0.3628920018672943
          0.16018599271774292 -0.8053240180015564 0.5707839727401733 0.013092000037431717 -0.8654230237007141 0.5008699893951416
          0.07741200178861618 -0.8334299921989441 0.5471770167350769 0.1103999987244606 -0.8392080068588257 0.5324869751930237
          0.12542399764060974 -0.8532530069351196 0.5061889886856079 0.1869090050458908 -0.8222830295562744 0.537509024143219
          -0.2765060067176819 -0.8394190073013306 0.4678899943828583 -0.7805200219154358 -0.5829970240592957 0.225614994764328
          -0.4933539927005768 -0.797249972820282 0.3478420078754425 -0.6442859768867493 -0.7128009796142578 0.2771480083465576
          -0.7478600144386292 -0.6365579962730408 0.18840999901294708 -0.3243910074234009 -0.8418710231781006 0.431304007768631
          -0.32796400785446167 -0.845894992351532 0.42059698700904846 -0.8832299709320068 -0.46616700291633606 -0.050919998437166214
          -0.931617021560669 -0.18238399922847748 -0.31436699628829956 -0.8805800080299377 0.17003299295902252 -0.44234299659729004
          -0.5410509705543518 0.6071270108222961 -0.58194500207901 -0.7100200057029724 0.4675010144710541 -0.526606023311615
          -0.4449320137500763 0.6666010022163391 -0.5980629920959473 0.5214729905128479 -0.05521199852228165 -0.8514800071716309
          0.6069369912147522 -0.7090590000152588 -0.35897499322891235 0.6200979948043823 -0.5165809988975525 -0.5904430150985718
          0.6010760068893433 -0.19019299745559692 -0.7762309908866882 0.2614719867706299 0.5497170090675354 -0.7933740019798279
          0.18526999652385712 0.34402498602867126 -0.9205009937286377 0.2327129989862442 0.6438480019569397 -0.728905975818634
          -0.07371500134468079 0.8689249753952026 -0.4894239902496338 -0.18446700274944305 0.6627429723739624 -0.7257710099220276
          -0.06985600292682648 0.6096540093421936 -0.7895839810371399 -0.07316400110721588 0.9447360038757324 -0.31956401467323303
          -0.25912100076675415 0.9657340049743652 0.014658000320196152 0.4177449941635132 -0.9085630178451538 0.001322000054642558
          0.4863629937171936 -0.8687220215797424 -0.09366100281476974 -0.31643301248550415 0.9486089944839478 0.003220000071451068
          -0.04683699831366539 0.8756849765777588 -0.48060598969459534 -0.38055598735809326 0.6882799863815308 -0.6176139712333679
          0.18628300726413727 -0.8782060146331787 0.4405139982700348 0.5051349997520447 -0.7864609956741333 0.35541200637817383
          0.40031400322914124 -0.7841879725456238 0.47412899136543274 0.231782004237175 -0.7765970230102539 0.5858100056648254
          0.2214999943971634 -0.8070449829101562 0.5473719835281372 0.24931900203227997 -0.8044750094413757 0.5391299724578857
          0.26294898986816406 -0.8097699880599976 0.524528980255127 0.2764419913291931 -0.7725629806518555 0.5716000199317932
          0.3725630044937134 -0.7366210222244263 0.5644350051879883 -0.03747300058603287 -0.8434510231018066 0.5358970165252686
          0.11786399781703949 -0.8038129806518555 0.5830879807472229 -0.15617500245571136 -0.8423439860343933 0.5158159732818604
          -0.45197999477386475 -0.7889819741249084 0.41620001196861267 -0.591152012348175 -0.7433859705924988 0.31291699409484863
          -0.3703260123729706 -0.8188139796257019 0.43863600492477417 -0.36031201481819153 -0.8206819891929626 0.4434579908847809
          -0.6741949915885925 -0.7029759883880615 0.22646400332450867 -0.21248599886894226 -0.8277810215950012 0.5192570090293884
          -0.9363059997558594 -0.2378930002450943 -0.25833800435066223 -0.8562210202217102 -0.5160790085792542 -0.023414000868797302
          -0.8488680124282837 0.2142149955034256 -0.48325398564338684 -0.5564200282096863 0.5800089836120605 -0.5949680209159851
          0.34089499711990356 0.1032399982213974 -0.9344149827957153 0.5596849918365479 -0.8269690275192261 -0.05362499877810478
          0.5019339919090271 -0.7991229891777039 -0.3308529853820801 0.432002991437912 -0.5634700059890747 -0.7041829824447632
          0.4169520139694214 -0.26786500215530396 -0.8685619831085205 0.41807499527931213 -0.08273600041866302 -0.9046369791030884
          0.1178790032863617 0.5553179979324341 -0.8232409954071045 -0.449537992477417 0.7145289778709412 -0.5360640287399292
          0.48961201310157776 -0.8568429946899414 0.1615539938211441 -0.26091399788856506 0.963470995426178 0.060391999781131744
          -0.10867899656295776 0.9739320278167725 -0.1991100013256073 -0.053661998361349106 0.8320549726486206 -0.5520910024642944
          -0.1351030021905899 0.7543879747390747 -0.6423749923706055 -0.2532249987125397 0.7182440161705017 -0.6480759978294373
          -0.4706070125102997 0.6446959972381592 -0.6024090051651001 0.2915709912776947 -0.9006059765815735 0.32232901453971863
          0.23613299429416656 -0.8071380257606506 0.5410820245742798 0.18571099638938904 -0.7862280011177063 0.589368999004364
          0.27017900347709656 -0.7734609842300415 0.5733770132064819 0.37938299775123596 -0.7413889765739441 0.5535439848899841
          0.32998499274253845 -0.742152988910675 0.5833690166473389 0.38008901476860046 -0.7240009903907776 0.5756350159645081
          0.5049489736557007 -0.6295369863510132 0.590516984462738 0.5443980097770691 -0.608830988407135 0.5770230293273926
          0.4990989863872528 -0.6464120149612427 0.5771059989929199 -0.42959699034690857 -0.794206976890564 0.42974698543548584
          -0.3742069900035858 -0.8019629716873169 0.4656449854373932 -0.3336560130119324 -0.8077239990234375 0.4860619902610779
          -0.5461530089378357 -0.7546820044517517 0.363552987575531 -0.6859170198440552 -0.6766890287399292 0.26759999990463257
          -0.2374590039253235 -0.8216379880905151 0.5181930065155029 -0.5279170274734497 0.5935760140419006 -0.6074299812316895
          -0.6671850085258484 0.514145016670227 -0.538998007774353 -0.8904550075531006 0.05725499987602234 -0.4514560103416443
          -0.5245569944381714 0.6092929840087891 -0.5946440100669861 0.4813140034675598 -0.8765339851379395 -0.005045999772846699
          0.29451799392700195 -0.8401179909706116 -0.4554769992828369 0.21680299937725067 -0.5092930197715759 -0.8328369855880737
          0.16538000106811523 -0.23340900242328644 -0.9582120180130005 -0.03362099826335907 0.05660400167107582 -0.9978299736976624
          -0.23013900220394135 0.37841901183128357 -0.896569013595581 -0.28377801179885864 0.9258819818496704 -0.24942399561405182
          -0.5854139924049377 0.7917730212211609 -0.17431500554084778 -0.47187501192092896 0.6287840008735657 -0.6180319786071777
          -0.524275004863739 0.6024550199508667 -0.6018170118331909 -0.3962379992008209 0.4880099892616272 -0.7777159810066223
          -0.3528960049152374 0.436271995306015 -0.8277260065078735 0.5481439828872681 -0.8220279812812805 0.15429599583148956
          -0.39965298771858215 0.9166179895401001 -0.009459000080823898 -0.2884880006313324 0.9547169804573059 0.07273299992084503
          -0.2532770037651062 0.9665970206260681 -0.03924600034952164 -0.11009600013494492 0.7447720170021057 -0.6581739783287048
          -0.20602500438690186 0.7263919711112976 -0.6556739807128906 -0.19913800060749054 0.7150689959526062 -0.6700900197029114
          -0.2023800015449524 0.6999070048332214 -0.6849619746208191 -0.32095998525619507 0.6792640089988708 -0.6599889993667603
          0.29338398575782776 -0.9420139789581299 0.16289900243282318 0.16354900598526 -0.8770279884338379 0.4517439901828766
          0.13402199745178223 -0.9629390239715576 0.23406599462032318 0.21184900403022766 -0.7502189874649048 0.6263319849967957
          0.4680880010128021 -0.6420789957046509 0.6071479916572571 0.2347559928894043 -0.776449978351593 0.5848199725151062
          0.3192879855632782 -0.7281420230865479 0.6065179705619812 0.7064980268478394 -0.4421069920063019 0.5526319742202759
          -0.07609699666500092 -0.8159530162811279 0.5730879902839661 0.1771160066127777 -0.7766180038452148 0.6045609712600708
          0.0741719976067543 -0.7981989979743958 0.5978099703788757 -0.5904539823532104 -0.7211930155754089 0.36227700114250183
          -0.32211801409721375 -0.8143609762191772 0.4827589988708496 -0.2579770088195801 -0.8223540186882019 0.5071319937705994
          -0.30834299325942993 -0.8159369826316833 0.4890519976615906 -0.38015100359916687 -0.8011860251426697 0.46215298771858215
          -0.6134660243988037 -0.7253069877624512 0.3123930096626282 -0.22103899717330933 -0.8226739764213562 0.5237830281257629
          -0.880279004573822 -0.4737580120563507 -0.025736000388860703 -0.7217839956283569 -0.6481109857559204 0.24285799264907837
          -0.08675500005483627 -0.8250390291213989 0.5583770275115967 -0.8990970253944397 -0.43568098545074463 -0.04249599948525429
          -0.5263760089874268 0.5777869820594788 -0.6237710118293762 -0.3971419930458069 0.6277099847793579 -0.6695209741592407
          -0.5359240174293518 0.49686598777770996 -0.6825760006904602 -0.5938299894332886 0.4251730144023895 -0.6830769777297974
          0.2617659866809845 -0.9635459780693054 -0.05529500171542168 0.2879149913787842 -0.9078599810600281 -0.30478599667549133
          0.28898900747299194 -0.8016369938850403 -0.5233200192451477 0.21845899522304535 -0.6599050164222717 -0.7188889980316162
          0.08570300042629242 -0.4081369936466217 -0.9088889956474304 -0.1509000062942505 -0.07530699670314789 -0.9856759905815125
          -0.28519898653030396 0.17928500473499298 -0.9415510296821594 -0.5902360081672668 0.703423023223877 -0.39600199460983276
          -0.5249999761581421 0.84552401304245 0.09728600084781647 -0.4950940012931824 0.8678939938545227 -0.040518999099731445
          -0.5054569840431213 0.8237760066986084 -0.25672098994255066 -0.5002409815788269 0.4822869896888733 -0.7191370129585266
          -0.40284401178359985 0.7852640151977539 -0.47018900513648987 -0.26009100675582886 0.7372509837150574 -0.6235489845275879
          -0.4465450048446655 0.4517279863357544 -0.7723590135574341 -0.32651400566101074 0.6405109763145447 -0.6950790286064148
          -0.46420198678970337 0.35224199295043945 -0.8126760125160217 -0.3937990069389343 0.3435699939727783 -0.8525739908218384
          -0.3932889997959137 0.4305439889431 -0.8123769760131836 -0.4395290017127991 0.8981019854545593 -0.015088999643921852
          -0.15184199810028076 0.9247729778289795 -0.34891200065612793 -0.24074900150299072 0.7515079975128174 -0.6142280101776123
          -0.19366000592708588 0.7105649709701538 -0.6764559745788574 -0.24353300034999847 0.7128750085830688 -0.6576480269432068
          -0.17104800045490265 0.7160940170288086 -0.6767209768295288 -0.1615999937057495 0.7245399951934814 -0.6700199842453003
          -0.2161879986524582 0.7090309858322144 -0.6712210178375244 -0.28422001004219055 0.6855310201644897 -0.6702730059623718
          0.15240199863910675 -0.9809730052947998 0.12027200311422348 0.30788201093673706 -0.7473359704017639 0.5888109803199768
          0.4821169972419739 -0.6432660222053528 0.5947880148887634 0.2931860089302063 -0.7159690260887146 0.6335859894752502
          0.4666360020637512 -0.5943480134010315 0.6549819707870483 0.6556779742240906 -0.47108200192451477 0.5900580286979675
          0.6265649795532227 -0.5190500020980835 0.5813800096511841 0.5135579705238342 -0.5983960032463074 0.6149640083312988
          0.18600399792194366 -0.7648190259933472 0.6168100237846375 0.4036029875278473 -0.6707119941711426 0.622294008731842
          0.7681819796562195 -0.34253600239753723 0.540893018245697 0.9063370227813721 -0.15732799470424652 0.39217400550842285
          0.7834519743919373 -0.36428600549697876 0.5034859776496887 0.7899379730224609 -0.28956300020217896 0.5405110120773315
          -0.10734400153160095 -0.8162519931793213 0.5676360130310059 0.031307999044656754 -0.8061990141868591 0.590815007686615
          -0.1681549996137619 -0.8187749981880188 0.5489370226860046 -0.2032029926776886 -0.8090400099754333 0.5515099763870239
          -0.8161879777908325 -0.562686026096344 0.13122999668121338 -0.5444679856300354 -0.7559300065040588 0.3634899854660034
          -0.6475480198860168 -0.7001029849052429 0.30089399218559265 -0.6958879828453064 -0.6813300251960754 0.22699999809265137
          -0.8771219849586487 -0.48025399446487427 -0.0037609999999403954 -0.8976939916610718 -0.43082699179649353 -0.09237899631261826
          -0.9041839838027954 -0.42575499415397644 -0.03440599888563156 -0.4622209966182709 0.5914040207862854 -0.66075199842453
          -0.38964301347732544 0.6216390132904053 -0.6795179843902588 -0.2511489987373352 0.6072229743003845 -0.7537940144538879
          -0.7647830247879028 0.11156699806451797 -0.6345549821853638 -0.4361189901828766 0.40637001395225525 -0.8029099702835083
          -0.3125869929790497 0.5147669911384583 -0.7983139753341675 0.28738901019096375 -0.9321560263633728 -0.220210999250412
          0.32109200954437256 -0.7689890265464783 -0.5527709722518921 0.22726500034332275 -0.5370140075683594 -0.8123840093612671
          0.2545259892940521 -0.2438029944896698 -0.9358289837837219 -0.26144900918006897 0.11177600175142288 -0.9587230086326599
          -0.07000900059938431 0.005224000196903944 -0.9975330233573914 -0.1966090053319931 0.21778300404548645 -0.9559890031814575
          -0.40051400661468506 0.9149410128593445 -0.049706000834703445 -0.555420994758606 0.8275769948959351 -0.08138500154018402
          -0.3681730031967163 0.8873990178108215 -0.2774380147457123 -0.1447180062532425 0.8865759968757629 -0.4393619894981384
          -0.19203700125217438 0.6315950155258179 -0.7511389851570129 -0.06134599819779396 0.7904120087623596 -0.6094970107078552
          -0.2719059884548187 0.46693700551986694 -0.8414490222930908 -0.04770899936556816 0.35780298709869385 -0.9325780272483826
          -0.4665760099887848 0.8470489978790283 -0.2545889914035797 -0.36754098534584045 0.8502709865570068 -0.37676700949668884
          -0.25270599126815796 0.7227020263671875 -0.6433050036430359 -0.33737900853157043 0.7160090208053589 -0.6111519932746887
          -0.3868600130081177 0.7214509844779968 -0.5743240118026733 -0.1905680000782013 0.7713040113449097 -0.6072679758071899
          -0.18335899710655212 0.7483530044555664 -0.6374539732933044 -0.07925599813461304 0.7767130136489868 -0.6248480081558228
          -0.16919900476932526 0.7413930296897888 -0.6493909955024719 -0.07387199997901917 0.7742279767990112 -0.6285809874534607
          -0.09948199987411499 0.749193012714386 -0.6548380255699158 -0.0672530010342598 0.7500939965248108 -0.6579020023345947
          0.32914799451828003 -0.9440069794654846 0.022621000185608864 0.21682600677013397 -0.9589890241622925 0.18255500495433807
          0.29064199328422546 -0.8811740279197693 0.37290799617767334 0.3913150131702423 -0.864641010761261 0.3150700032711029
          0.4607740044593811 -0.6168410181999207 0.6381180286407471 0.5981109738349915 -0.6323379874229431 0.49235299229621887
          0.6888740062713623 -0.5042970180511475 0.5207089781761169 0.7304450273513794 -0.4111649990081787 0.545337975025177
          0.7260779738426208 -0.364998996257782 0.5827410221099854 0.7607790231704712 -0.3464699983596802 0.5487930178642273
          0.7275440096855164 -0.4182409942150116 0.5438330173492432 0.5999889969825745 -0.5243020057678223 0.6042519807815552
          0.2656489908695221 -0.7369629740715027 0.6215429902076721 0.5572199821472168 -0.5532360076904297 0.6192219853401184
          0.6086519956588745 -0.5292789936065674 0.5911059975624084 0.5016149878501892 -0.5907869935035706 0.6319429874420166
          0.9493690133094788 -0.04473600164055824 0.3109630048274994 0.8250010013580322 -0.29194098711013794 0.48388299345970154
          0.8515599966049194 -0.15724299848079681 0.5001199841499329 0.826242983341217 -0.20855200290679932 0.523285984992981
          0.8401370048522949 -0.1972309947013855 0.5052419900894165 -0.009739000350236893 -0.8069589734077454 0.5905269980430603
          0.20151600241661072 -0.7474349737167358 0.6330339908599854 -0.007805999834090471 -0.7968379855155945 0.6041430234909058
          -0.22782300412654877 -0.810142993927002 0.5401530265808105 -0.11106300354003906 -0.8082180023193359 0.578315019607544
          -0.4113740026950836 -0.79025799036026 0.45416200160980225 -0.9491369724273682 -0.24274499714374542 -0.20053599774837494
          -0.943111002445221 -0.2948949933052063 -0.15355099737644196 -0.8907359838485718 -0.45283499360084534 0.03910600021481514
          -0.733843982219696 -0.635453999042511 0.24014900624752045 -0.781440019607544 -0.5930960178375244 0.19387899339199066
          -0.8788390159606934 -0.04687799885869026 -0.4748089909553528 -0.2703559994697571 0.650505006313324 -0.709755003452301
          -0.06164199858903885 0.7589870095252991 -0.6481810212135315 -0.35271498560905457 0.6578400135040283 -0.665461003780365
          -0.46357300877571106 0.5781469941139221 -0.6714509725570679 -0.45643898844718933 0.5688940286636353 -0.6841220259666443
          -0.2901049852371216 0.5101450085639954 -0.809686005115509 -0.8790389895439148 -0.16140900552272797 -0.44859498739242554
          -0.5854030251502991 0.30215999484062195 -0.752331018447876 0.5755569934844971 -0.4625470042228699 -0.6743770241737366
          0.4764229953289032 -0.7632039785385132 -0.43650999665260315 0.21618099510669708 0.10571400076150894 -0.9706130027770996
          -0.09955500066280365 0.9744210243225098 -0.20147700607776642 -0.1379469931125641 0.9359109997749329 -0.3241010010242462
          -0.5461030006408691 0.8272280097007751 -0.13215400278568268 -0.478210985660553 0.765699028968811 -0.4301390051841736
          -0.4097619950771332 0.9121900200843811 0.0018579999450594187 -0.4141330122947693 0.8610479831695557 -0.2951120138168335
          0.2906639873981476 0.8429139852523804 -0.45278099179267883 0.18863700330257416 0.8892840147018433 -0.4166420102119446
          0.24211299419403076 0.8936799764633179 -0.3777799904346466 -0.06660400331020355 0.5709760189056396 -0.8182600140571594
          0.15103299915790558 0.7029839754104614 -0.6949840188026428 0.16032299399375916 0.510532021522522 -0.8447800278663635
          -0.34149599075317383 0.7852069735527039 -0.5165550112724304 -0.2689340114593506 0.7745590209960938 -0.5724790096282959
          0.048590999096632004 0.8393579721450806 -0.5414029955863953 0.03501399978995323 0.8119940161705017 -0.582614004611969
          0.13030700385570526 0.8360549807548523 -0.5329470038414001 0.09707699716091156 0.8106200098991394 -0.577468991279602
          0.10248400270938873 0.8011109828948975 -0.5896769762039185 -0.008050000295042992 0.7727779746055603 -0.6346259713172913
          0.04142700135707855 0.7976179718971252 -0.6017389893531799 -0.05998999997973442 0.7460479736328125 -0.6631839871406555
          -0.039882998913526535 0.7574710249900818 -0.6516500115394592 0.42371800541877747 -0.8869529962539673 -0.18378600478172302
          0.48209598660469055 -0.8512150049209595 0.20740599930286407 0.6770319938659668 -0.7232949733734131 0.13591499626636505
          0.6517500281333923 -0.6531879901885986 0.3854449987411499 0.7873370051383972 -0.4034479856491089 0.4661870002746582
          0.9105870127677917 -0.18013200163841248 0.37199899554252625 0.8700330257415771 -0.22351600229740143 0.43941301107406616
          0.8570770025253296 -0.2682110071182251 0.4398669898509979 0.7885940074920654 -0.30327001214027405 0.5349270105361938
          0.7898759841918945 -0.3211959898471832 0.5224249958992004 0.7350410223007202 -0.37323999404907227 0.5660449862480164
          0.6333879828453064 -0.49047499895095825 0.5985429883003235 0.7262759804725647 -0.40417900681495667 0.5560240149497986