<?xml version="1.0"?>
<VTKFile type="PolyData" version="0.1" byte_order="LittleEndian" header_type="UInt32" compressor="vtkZLibDataCompressor">
  <PolyData>
    <Piece NumberOfPoints="1025" NumberOfVerts="0" NumberOfLines="0" NumberOfStrips="0" NumberOfPolys="2046">
      <PointData Normals="Normals">
        <DataArray type="Float32" Name="Normals" NumberOfComponents="3" format="ascii" RangeMin="0.9999993353150416" RangeMax="1.0000008524749204">
          0.9877139925956726 0.10643299669027328 0.11442200094461441 0.9695349931716919 0.22085699439048767 0.10594599694013596
          0.9048560261726379 -0.3792110085487366 -0.19348099827766418 0.9151440262794495 -0.39882799983024597 -0.058715999126434326
          0.6866539716720581 0.6353060007095337 0.3534019887447357 0.8411440253257751 0.4429210126399994 0.3103199899196625
          0.9251120090484619 -0.32245200872421265 -0.20047900080680847 0.9987360239028931 -0.040174998342990875 0.030216999351978302
          0.9290170073509216 0.2979130148887634 0.2194889932870865 0.6006770133972168 0.6817049980163574 0.4176889955997467
          0.7001140117645264 0.61005699634552 0.3710390031337738 0.7758769989013672 -0.5513579845428467 -0.30662599205970764
          0.5950080156326294 -0.7210050225257874 -0.3551279902458191 0.9393479824066162 0.22661200165748596 0.25743499398231506
          0.9991899728775024 -0.00005700000110664405 0.040240999311208725 0.954925000667572 -0.2636060118675232 -0.13649499416351318
          0.673475980758667 -0.7265939712524414 -0.13598300516605377 0.7857000231742859 -0.6096069812774658 -0.10514000058174133
          0.5014430284500122 -0.8208850026130676 -0.2733199894428253 0.3035939931869507 0.8211029767990112 0.4833430051803589
          0.4247390031814575 0.6905059814453125 0.5854899883270264 0.5648880004882812 0.6893600225448608 0.45352399349212646
          0.9868450164794922 -0.16151000559329987 0.0071829999797046185 0.7653599977493286 -0.5869160294532776 -0.2641099989414215
          0.9369099736213684 0.19572100043296814 0.28964298963546753 0.2905470132827759 0.8470460176467896 0.4450779855251312
          0.8480520248413086 0.4317770004272461 0.30720600485801697 0.5911639928817749 0.7395240068435669 0.32191699743270874
          0.659430980682373 -0.6490749716758728 -0.3792789876461029 0.8032079935073853 -0.5194699764251709 -0.29155999422073364
          0.3527800142765045 -0.8099449872970581 -0.4685460031032562 0.35666799545288086 -0.8243920207023621 -0.43950599431991577
          0.3341369926929474 -0.8497880101203918 -0.4076929986476898 0.4483180046081543 -0.7739329934120178 -0.44725701212882996
          0.8465219736099243 0.4226379990577698 0.32369399070739746 0.9114660024642944 -0.3678550124168396 -0.18415099382400513
          0.9696440100669861 -0.20822399854660034 -0.12819500267505646 0.9898620247840881 -0.1034109964966774 -0.09735900163650513
          0.8733599781990051 0.42835599184036255 0.23184800148010254 0.9991099834442139 -0.028124000877141953 -0.03142400085926056
          0.9864569902420044 -0.122250996530056 -0.10934700071811676 0.9079849720001221 -0.3219180107116699 -0.26820001006126404
          0.9798030257225037 -0.13612300157546997 -0.14648300409317017 0.8086450099945068 -0.46289798617362976 -0.36306899785995483
          0.9453250169754028 -0.2794950008392334 -0.16805599629878998 0.8308960199356079 -0.4579260051250458 -0.31609299778938293
          0.8479080200195312 -0.4983460009098053 -0.18083900213241577 0.6780499815940857 -0.6889359951019287 -0.25615400075912476
          0.32725998759269714 -0.8883879780769348 -0.3219760060310364 0.4767870008945465 -0.8219280242919922 -0.3116230070590973
          0.16466300189495087 -0.9087470173835754 -0.3834899961948395 0.21489299833774567 -0.8901429772377014 -0.40182799100875854
          0.12802599370479584 0.8727689981460571 0.47104400396347046 0.07856400310993195 0.8343799710273743 0.5455629825592041
          0.08769100159406662 0.8336970210075378 0.5452160239219666 0.2926720082759857 0.8694530129432678 0.3979870080947876
          0.201432004570961 0.8708530068397522 0.44837599992752075 0.68545001745224 0.6674349904060364 0.2910139858722687
          0.7672110199928284 -0.5847899913787842 -0.2634519934654236 0.9451299905776978 -0.2699339985847473 -0.18402500450611115
          0.9351710081100464 0.3476090133190155 0.06799399852752686 0.7049559950828552 -0.6482110023498535 -0.2878530025482178
          0.05356999859213829 0.8968740105628967 0.4390290081501007 0.08764900267124176 0.9078090190887451 0.41012299060821533
          0.3762100040912628 0.8358880281448364 0.3996970057487488 0.23051099479198456 0.8961750268936157 0.3791249990463257
          0.8267229795455933 0.5572249889373779 0.07764799892902374 0.5803139805793762 0.7846630215644836 0.2180349975824356
          0.2834109961986542 0.8965849876403809 0.3403150141239166 0.6244919896125793 -0.6756309866905212 -0.39183199405670166
          0.854993999004364 -0.43568599224090576 -0.281360000371933 0.8360540270805359 -0.48958200216293335 -0.24763700366020203
          0.6782919764518738 -0.6434069871902466 -0.35489100217819214 0.7520009875297546 -0.5706750154495239 -0.32988399267196655
          0.21192499995231628 -0.848675012588501 -0.4846009910106659 0.11977600306272507 -0.878574013710022 -0.4623430073261261
          0.38103100657463074 -0.8067430257797241 -0.4516429901123047 0.5482770204544067 -0.729557991027832 -0.40882399678230286
          0.5754929780960083 -0.7205989956855774 -0.386709988117218 0.4901919960975647 -0.7606520056724548 -0.42558300495147705
          0.931768000125885 -0.30308300256729126 -0.19987300038337708 0.9475849866867065 0.2933570146560669 0.12658900022506714
          0.9975079894065857 0.003539999946951866 -0.0704680010676384 0.8300939798355103 -0.3863460123538971 -0.4020960032939911
          0.9176459908485413 -0.3022240102291107 -0.25804299116134644 0.549655020236969 -0.6326789855957031 -0.545524001121521
          0.6847339868545532 -0.6004689931869507 -0.4130080044269562 0.539929986000061 -0.7361530065536499 -0.40811100602149963
          0.254067987203598 -0.8765199780464172 -0.40885499119758606 0.12310999631881714 -0.8835170269012451 -0.4519309997558594
          0.05328499898314476 -0.8840910196304321 -0.46426600217819214 0.0053369998931884766 0.8685169816017151 0.4956299960613251
          0.017974000424146652 0.877360999584198 0.47949400544166565 0.026806000620126724 0.8946629762649536 0.44593700766563416
          0.3887439966201782 0.8481299877166748 0.359935998916626 0.26869601011276245 0.8205530047416687 0.5044749975204468
          0.06352999806404114 0.8312150239944458 0.5523099899291992 0.9183369874954224 0.3897880017757416 0.06872300058603287
          0.8156740069389343 0.571465015411377 0.09001799672842026 0.5473359823226929 0.7790390253067017 0.3058130145072937
          0.8254439830780029 -0.4927549958229065 -0.2753809988498688 0.9913319945335388 -0.028318999335169792 -0.1282919943332672
          0.9786520004272461 0.19684800505638123 -0.05908999964594841 0.05738599970936775 0.9062899947166443 0.4187430143356323
          0.02558100037276745 0.9149789810180664 0.40268900990486145 0.018459999933838844 0.9200490117073059 0.39136800169944763
          -0.0007600000244565308 0.9249899983406067 0.37999099493026733 0.932869017124176 0.3559800088405609 -0.05507199838757515
          0.768409013748169 0.6371060013771057 0.06036800146102905 0.5697569847106934 0.8123980164527893 0.12404300272464752
          0.2595059871673584 0.923445999622345 0.28267401456832886 0.2746550142765045 0.9393460154533386 0.20541000366210938
          0.11970700323581696 0.9389870166778564 0.3224479854106903 0.8430299758911133 -0.45743298530578613 -0.2829410135746002
          0.794642984867096 -0.536208987236023 -0.2846449911594391 0.7514730095863342 -0.5772449970245361 -0.31949499249458313
          0.2177090048789978 -0.8651639819145203 -0.45176801085472107 0.08489499986171722 -0.8848530054092407 -0.4580700099468231
          0.01847199909389019 -0.874226987361908 -0.485164999961853 0.05066300183534622 -0.9107609987258911 -0.4098150134086609
          0.014499999582767487 -0.8835700154304504 -0.4680750072002411 0.04523000121116638 -0.9099149703979492 -0.4123220145702362
          0.40057098865509033 -0.8227570056915283 -0.4032540023326874 0.6340489983558655 -0.6895899772644043 -0.3499259948730469
          0.9921360015869141 0.0667949989438057 -0.10585299879312515 0.9375900030136108 -0.19767999649047852 -0.2860899865627289
          0.7788320183753967 -0.001303000026382506 -0.6272310018539429 0.857895016670227 -0.14061400294303894 -0.49421098828315735
          0.7658990025520325 -0.40544500946998596 -0.4990119934082031 0.500465989112854 -0.6990690231323242 -0.5107219815254211
          0.21086600422859192 -0.808555006980896 -0.549340009689331 0.21696999669075012 -0.6314740180969238 -0.7444220185279846
          0.49797001481056213 -0.4864419996738434 -0.7179129719734192 0.06499499827623367 -0.9271829724311829 -0.3689279854297638
          0.17393499612808228 -0.8743510246276855 -0.45305299758911133 0.24422100186347961 -0.8729199767112732 -0.4223349988460541
          0.2057660073041916 -0.8890230059623718 -0.4090209901332855 0.010250999592244625 -0.8893349766731262 -0.4571410119533539
          0.0796630010008812 0.8827099800109863 0.46311700344085693 0.19859300553798676 0.8903250098228455 0.4097349941730499
          0.14736300706863403 0.8364880084991455 0.5278000235557556 0.38614100217819214 0.850151002407074 0.35796499252319336
          0.06214600056409836 0.7722989916801453 0.6322119832038879 -0.07836899906396866 0.7772499918937683 0.6242920160293579
          -0.05990099906921387 0.8676270246505737 0.4935950040817261 0.5484129786491394 0.8191369771957397 0.1680999994277954
          0.582610011100769 0.8077139854431152 -0.09035199880599976 0.8852739930152893 0.44418299198150635 -0.137814000248909
          0.9151769876480103 -0.3390960097312927 -0.2178640067577362 0.9842510223388672 -0.05101199820637703 -0.1692570000886917
          0.016679000109434128 0.8971629738807678 0.4413839876651764 -0.08014599978923798 0.8955709934234619 0.4376400113105774
          -0.2098190039396286 0.8857839703559875 0.41395899653434753 -0.3214240074157715 0.8763769865036011 0.35867899656295776
          -0.23446999490261078 0.9191250205039978 0.31659600138664246 -0.04520700126886368 0.9753599762916565 0.215939000248909
          0.8951550126075745 0.4394739866256714 -0.07456199824810028 0.9838169813156128 0.06435900181531906 -0.16721700131893158
          0.5381259918212891 0.8343819975852966 0.11928000301122665 0.7287150025367737 0.684660017490387 -0.014701000414788723
          0.13838599622249603 0.9809929728507996 0.13602100312709808 0.37588798999786377 0.917110025882721 0.13273200392723083
          0.8748689889907837 -0.41836801171302795 -0.2440750002861023 0.8990730047225952 -0.3548400104045868 -0.2564300000667572
          0.7821810245513916 -0.5389909744262695 -0.31254100799560547 0.11461400240659714 -0.8821560144424438 -0.4567970037460327
          0.11900900304317474 -0.8968709707260132 -0.42598000168800354 -0.059133000671863556 -0.8967530131340027 -0.4385620057582855
          0.023585999384522438 -0.8987619876861572 -0.4378010034561157 -0.08100000023841858 -0.902055025100708 -0.42395299673080444
          -0.21953000128269196 -0.9069889783859253 -0.3594140112400055 0.44011199474334717 -0.8192999958992004 -0.3674899935722351
          0.2407590001821518 -0.8888069987297058 -0.38994601368904114 0.5603560209274292 -0.7448149919509888 -0.3622870147228241
          0.6949599981307983 -0.6252400279045105 -0.35511401295661926 0.9484090209007263 0.15135900676250458 -0.2785860002040863
          0.8449509739875793 0.1635410040616989 -0.509227991104126 0.6683269739151001 -0.24267500638961792 -0.7031700015068054
          0.5457580089569092 0.08366899937391281 -0.8337550163269043 0.47797301411628723 0.4572969973087311 -0.7499470114707947
          0.5393239855766296 0.5777509808540344 -0.6126449704170227 0.2527259886264801 -0.8350279927253723 -0.4887300133705139
          0.08211400359869003 -0.7223209738731384 -0.6866660118103027 0.026499999687075615 -0.8192149996757507 -0.5728740096092224
          0.2743859887123108 -0.23738700151443481 -0.9318580031394958 -0.05552799999713898 -0.5354949831962585 -0.8427109718322754
          0.15727099776268005 -0.8951089978218079 -0.41718700528144836 -0.09794700145721436 -0.9646490216255188 -0.24466000497341156
          -0.24713000655174255 -0.9285749793052673 -0.27690398693084717 0.6182760000228882 -0.6922010183334351 -0.3722809851169586
          0.29170700907707214 -0.6281290054321289 -0.721360981464386 0.08605600148439407 -0.753708004951477 -0.6515510082244873
          0.9478200078010559 -0.2901720106601715 -0.13204899430274963 0.8223350048065186 -0.5065109729766846 -0.25925201177597046
          -0.04964299872517586 0.8993510007858276 0.4343990087509155 -0.03999499976634979 0.9633769989013672 0.2651529908180237
          0.2285030037164688 0.9565320014953613 0.18119899928569794 -0.056393999606370926 0.9242879748344421 0.37750598788261414
          -0.08110900223255157 0.9448320269584656 0.3173539936542511 -0.0908610001206398 0.847586989402771 0.522819995880127
          -0.11225199699401855 0.8186290264129639 0.5632460117340088 -0.1368740051984787 0.8517910242080688 0.5056859850883484
          -0.066211998462677 0.7903929948806763 0.6090120077133179 -0.12715500593185425 0.8873149752616882 0.4432869851589203
          0.35192400217056274 0.9359130263328552 -0.014708000235259533 0.2541219890117645 0.9270319938659668 -0.2757430076599121
          0.4311630129814148 0.8095710277557373 -0.39836400747299194 0.7455450296401978 0.5419880151748657 -0.38782799243927
          0.9460260272026062 -0.2416210025548935 -0.21599699556827545 0.9177359938621521 -0.3130449950695038 -0.24446499347686768
          -0.11657799780368805 0.8961529731750488 0.4281579852104187 -0.12995700538158417 0.8955230116844177 0.42561599612236023
          -0.2163960039615631 0.8743749856948853 0.43432798981666565 -0.33996298909187317 0.8609960079193115 0.3783009946346283
          -0.3800159990787506 0.8355410099029541 0.39681199193000793 -0.34565699100494385 0.8505949974060059 0.39624398946762085
          -0.4365760087966919 0.8092550039291382 0.39307498931884766 -0.5061200261116028 0.8121659755706787 0.2902210056781769
          -0.34270599484443665 0.8860129714012146 0.31230399012565613 -0.19188499450683594 0.9489240050315857 0.25044500827789307
          -0.2955299913883209 0.8954110145568848 0.3330180048942566 -0.27507901191711426 0.9090970158576965 0.3128480017185211
          -0.05857900157570839 0.9857640266418457 0.157600998878479 -0.156918004155159 0.9655529856681824 0.20756499469280243
          0.9695500135421753 0.1927189975976944 -0.15110400319099426 0.8521649837493896 0.5092189908027649 -0.12045799940824509
          0.9357290267944336 0.28529900312423706 -0.2074030041694641 0.9598510265350342 -0.09177999943494797 -0.2650719881057739
          0.4925529956817627 0.8689810037612915 0.047568000853061676 0.0037819999270141125 0.9876989722251892 0.15632300078868866
          0.5751429796218872 0.8178039789199829 -0.020161999389529228 0.7751790285110474 0.6168090105056763 -0.13654600083827972
          0.9730539917945862 -0.19638599455356598 -0.12082000076770782 0.9621000289916992 -0.22767400741577148 -0.1500910073518753
          0.8464270234107971 -0.4456540048122406 -0.291469007730484 0.04705899953842163 -0.9197319746017456 -0.3897159993648529
          -0.03965400159358978 -0.91075199842453 -0.41104599833488464 -0.1665329933166504 -0.8921869993209839 -0.41984501481056213
          -0.07968199998140335 -0.9090409874916077 -0.40901699662208557 -0.2651810050010681 -0.8796849846839905 -0.3947570025920868
          -0.4874970018863678 -0.7934610247612 -0.36437100172042847 -0.4912799894809723 -0.8278459906578064 -0.2707659900188446
          0.20550799369812012 -0.9008820056915283 -0.3823319971561432 0.38773399591445923 -0.8355069756507874 -0.38934698700904846
          0.573291003704071 -0.7295920252799988 -0.372871994972229 0.7362160086631775 -0.5826060175895691 -0.34431999921798706
          0.21974299848079681 0.3332679867744446 -0.9168670177459717 0.11884800344705582 0.712677001953125 -0.6913520097732544
          0.02131499908864498 0.8319090008735657 -0.5545030236244202 -0.03369100019335747 -0.5514500141143799 -0.8335270285606384
          0.07043900340795517 -0.6857630014419556 -0.7244089841842651 -0.03744899854063988 -0.6844429969787598 -0.7281039953231812
          -0.15034300088882446 -0.08973299711942673 -0.9845529794692993 0.18194100260734558 -0.7969350218772888 -0.57601398229599
          0.1994049996137619 -0.7900019884109497 -0.5797719955444336 0.01691499911248684 -0.8676480054855347 -0.4968920052051544
          -0.07923399657011032 -0.9480360150337219 -0.30813801288604736 -0.04826100170612335 -0.9758689999580383 -0.21295499801635742
          -0.34325501322746277 -0.9287359714508057 -0.1400890052318573 0.12910600006580353 -0.5385990142822266 -0.8326119780540466
          0.2568899989128113 -0.6585509777069092 -0.7073310017585754 0.4572080075740814 -0.40031400322914124 -0.7941719889640808
          0.4361410140991211 -0.41877201199531555 -0.7964990139007568 -0.03385100141167641 0.9943289756774902 0.10081800073385239
          -0.19992700219154358 0.9785100221633911 -0.05046600103378296 -0.2025430053472519 0.9789909720420837 0.023521000519394875
          -0.0004560000088531524 0.9945300221443176 -0.10445000231266022 -0.12712199985980988 0.9636719822883606 0.23489700257778168
          -0.1689780056476593 0.9855729937553406 0.009548000060021877 -0.10123199969530106 0.7611259818077087 0.640654981136322
          -0.08904799818992615 0.7913900017738342 0.604790985584259 -0.021531999111175537 0.8425080180168152 0.5382540225982666
          -0.12135899811983109 0.8309760093688965 0.5429090261459351 -0.062206998467445374 0.9843040108680725 0.16515499353408813
          -0.2955549955368042 0.8128309845924377 0.5019490122795105 -0.26971399784088135 0.7857589721679688 0.55663001537323
          -0.008413000032305717 0.934719979763031 -0.35528600215911865 0.8839300274848938 -0.35359400510787964 -0.30600500106811523
          -0.31743401288986206 0.8168320059776306 0.48168501257896423 -0.3246389925479889 0.8424080014228821 0.4300670027732849
          -0.35220101475715637 0.8181639909744263 0.45449098944664 -0.44652798771858215 0.7552580237388611 0.47979000210762024
          -0.5064719915390015 0.8211460113525391 0.26306700706481934 -0.7647950053215027 0.6065409779548645 0.21724799275398254
          -0.6525980234146118 0.734158992767334 0.18741899728775024 -0.29027000069618225 0.90174400806427 0.3203119933605194
          -0.18155300617218018 0.9222580194473267 0.3412890136241913 -0.179640993475914 0.9254990220069885 0.3334389925003052
          -0.23997800052165985 0.9398040175437927 0.2432660013437271 -0.23937800526618958 0.9416030049324036 0.23681899905204773
          -0.2630870044231415 0.9153140187263489 0.3049350082874298 0.9446250200271606 0.19859999418258667 -0.261231005191803
          0.9479089975357056 0.059036001563072205 -0.31302300095558167 0.8573660254478455 -0.38633400201797485 -0.3401019871234894
          0.8997049927711487 -0.24109800159931183 -0.3638719916343689 0.2655220031738281 0.9623050093650818 0.05887699872255325
          -0.2401600033044815 0.9577550292015076 0.15820200741291046 -0.2802030146121979 0.9451829791069031 0.16767500340938568
          -0.3190700113773346 0.938838005065918 0.12952999770641327 0.4508669972419739 0.8919489979743958 0.03385299816727638
          0.5909839868545532 0.8049420118331909 -0.05297800153493881 0.8085830211639404 0.5566890239715576 -0.19050000607967377
          0.9226549863815308 0.2644580006599426 -0.2806589901447296 0.8036689758300781 0.5874500274658203 -0.09496399760246277
          0.6337559819221497 0.7698529958724976 -0.0753600001335144 0.9548959732055664 -0.23350399732589722 -0.1834390014410019
          0.9153090119361877 -0.296409010887146 -0.2726759910583496 0.8000890016555786 -0.49746501445770264 -0.3352409899234772
          -0.01671699993312359 -0.9146419763565063 -0.4039199948310852 -0.4475879967212677 -0.8165429830551147 -0.3645850121974945
          -0.45228999853134155 -0.8047369718551636 -0.3844889998435974 -0.2879889905452728 -0.8782089948654175 -0.38185200095176697
          -0.4208199977874756 -0.8190420269966125 -0.38997501134872437 -0.5713269710540771 -0.7285559773445129 -0.37787699699401855
          -0.6621320247650146 -0.6989880204200745 -0.27017998695373535 -0.7418400049209595 -0.598505973815918 -0.3024289906024933
          -0.6982669830322266 -0.7013139724731445 -0.14346200227737427 0.14343300461769104 -0.8855839967727661 -0.4417780041694641
          0.49406298995018005 -0.7704610228538513 -0.40285399556159973 0.3226419985294342 -0.8565559983253479 -0.4027569890022278
          0.8378720283508301 -0.4400700032711029 -0.3229700028896332 0.5942419767379761 -0.6824970245361328 -0.42552798986434937
          0.7748619914054871 -0.5235329866409302 -0.3542630076408386 -0.2342589944601059 0.4800420105457306 -0.8453890085220337
          -0.31400400400161743 0.6634169816970825 -0.6791759729385376 -0.3179140090942383 0.6871910095214844 -0.6532229781150818
          -0.29109200835227966 0.710893988609314 -0.6402310132980347 -0.18326300382614136 0.9110190272331238 -0.36940300464630127
          -0.18022100627422333 -0.32391899824142456 -0.9287610054016113 -0.07357700169086456 -0.5663290023803711 -0.8208889961242676
          -0.15109999477863312 -0.4999780058860779 -0.8527550101280212 -0.3473869860172272 0.13234299421310425 -0.9283360242843628
          0.15530499815940857 -0.7449650168418884 -0.6487730145454407 -0.005663000047206879 -0.7894799709320068 -0.6137499809265137
          -0.2720099985599518 -0.7667679786682129 -0.5814440250396729 -0.2742910087108612 -0.8260740041732788 -0.49230799078941345
          -0.32105499505996704 -0.8786640167236328 -0.3533729910850525 -0.301613986492157 -0.9374899864196777 -0.17361199855804443
          -0.6416810154914856 -0.7655389904975891 -0.046852000057697296 0.3378469944000244 -0.42743998765945435 -0.8385429978370667
          -0.05776200070977211 -0.04871600121259689 -0.9971410036087036 0.18210600316524506 -0.5308290123939514 -0.8276829719543457
          0.3053399920463562 -0.20874400436878204 -0.9290819764137268 -0.2705659866333008 0.9099379777908325 -0.3143349885940552
          -0.23909300565719604 0.9633439779281616 -0.12167099863290787 -0.08359800279140472 0.9840530157089233 -0.15700499713420868
          -0.229203000664711 0.9352790117263794 -0.26966598629951477 -0.2221740037202835 0.7230849862098694 0.6540539860725403
          -0.08962199836969376 0.8559520244598389 0.5092290043830872 -0.051017001271247864 0.8937439918518066 0.44566699862480164
          -0.26466500759124756 0.7920640110969543 0.5500789880752563 -0.08249200135469437 0.8276370167732239 0.5551689863204956
          -0.14015300571918488 0.8069750070571899 0.5737149715423584 -0.09723600000143051 0.9884210228919983 0.11648400127887726
          -0.0577160008251667 0.9921799898147583 -0.11066800355911255 -0.34622299671173096 0.7580919861793518 0.5526530146598816
          -0.2692689895629883 0.7874940037727356 0.5543889999389648 -0.19710800051689148 0.8328719735145569 0.5171769857406616
          -0.3474299907684326 0.7764899730682373 0.5256950259208679 -0.17781299352645874 0.8498790264129639 0.49607300758361816
          -0.550387978553772 0.6382960081100464 0.5381919741630554 -0.7769790291786194 0.4716170132160187 0.4169909954071045
          -0.312144011259079 0.899619996547699 0.3053700029850006 -0.5236369967460632 0.8205950260162354 0.228970006108284
          -0.8601170182228088 0.491923987865448 0.1349409967660904 -0.9698470234870911 0.23409199714660645 0.06780300289392471
          -0.9861630201339722 0.0935640037059784 0.13684900104999542 -0.22711800038814545 0.9374920129776001 0.2636759877204895
          -0.25238901376724243 0.9524369835853577 0.17077399790287018 -0.39454999566078186 0.8959090113639832 0.20415200293064117
          -0.2885420024394989 0.9285359978675842 0.2335900068283081 -0.3248260021209717 0.922370970249176 0.20909400284290314
          -0.2836740016937256 0.9287710189819336 0.23856599628925323 -0.35843798518180847 0.8997970223426819 0.24877099692821503
          0.9457619786262512 -0.017235999926924706 -0.3244040012359619 0.7653040289878845 -0.5078849792480469 -0.39542698860168457
          0.8574810028076172 -0.3206849992275238 -0.4023509919643402 0.9417340159416199 0.06823299825191498 -0.3293670117855072
          0.9277840256690979 0.0015290000010281801 -0.37311500310897827 0.18238100409507751 0.9722269773483276 0.14666999876499176
          -0.3934279978275299 0.9004520177841187 0.18547199666500092 -0.41533198952674866 0.8875200152397156 0.19951699674129486
          -0.22144100069999695 0.9438650012016296 0.24511900544166565 -0.4424780011177063 0.8707119822502136 0.21464799344539642
          0.6084179878234863 0.7935510277748108 0.010204000398516655 0.8466489911079407 0.4754149913787842 -0.23909200727939606
          0.767857015132904 0.6266999840736389 -0.1328269988298416 0.7917109727859497 0.5794249773025513 -0.1935500055551529
          0.870389997959137 0.4140760004520416 -0.2663860023021698 0.8688560128211975 0.4512929916381836 -0.2035290002822876
          0.6711949706077576 0.7366899847984314 -0.0823730006814003 0.9479479789733887 0.31670600175857544 -0.033048998564481735
          0.9551129937171936 0.2928380072116852 -0.04477100074291229 -0.2957650125026703 -0.8733900189399719 -0.386927992105484
          -0.04472799971699715 -0.9020599722862244 -0.42928698658943176 -0.6103579998016357 -0.7246400117874146 -0.31993699073791504
          -0.34144899249076843 -0.851544976234436 -0.3978489935398102 -0.20199300348758698 -0.8995460271835327 -0.38732001185417175
          -0.4177339971065521 -0.8379420042037964 -0.3512150049209595 -0.35107800364494324 -0.8546270132064819 -0.38256698846817017
          -0.532958984375 -0.765375018119812 -0.3607710003852844 -0.6408290266990662 -0.7056999802589417 -0.3022019863128662
          -0.6658099889755249 -0.6782490015029907 -0.31092798709869385 -0.7930309772491455 -0.5635889768600464 -0.23123300075531006
          -0.9487450122833252 -0.31169700622558594 -0.05222500115633011 -0.8454620242118835 -0.5078409910202026 -0.16519999504089355
          -0.9071170091629028 -0.39959099888801575 -0.13215599954128265 -0.9338350296020508 -0.35712099075317383 0.02043299935758114
          0.2011609971523285 -0.8330950140953064 -0.515254020690918 0.046588998287916183 -0.8657259941101074 -0.4983440041542053
          0.3322109878063202 -0.8310909867286682 -0.4460099935531616 -0.022624000906944275 -0.8872860074043274 -0.4606640040874481
          0.29323500394821167 -0.8252210021018982 -0.48272401094436646 0.443901002407074 -0.7809039950370789 -0.4394780099391937
          0.5415189862251282 -0.6842319965362549 -0.4884510040283203 0.39719900488853455 -0.71732497215271 -0.5724319815635681
          0.3682270050048828 -0.7986909747123718 -0.47592198848724365 0.660485029220581 -0.6169379949569702 -0.4279569983482361
          -0.3010930120944977 0.5123059749603271 -0.8042920231819153 -0.4131709933280945 0.5632140040397644 -0.7155969738960266
          -0.32520100474357605 0.5814769864082336 -0.7457410097122192 -0.33505499362945557 0.7628350257873535 -0.5530110001564026
          -0.23290400207042694 -0.20708300173282623 -0.9501960277557373 -0.02199999988079071 -0.7027999758720398 -0.7110469937324524
          -0.2698639929294586 -0.6114810109138489 -0.7438169717788696 -0.5626659989356995 -0.6460970044136047 -0.5157189965248108
          -0.5844339728355408 -0.6972960233688354 -0.4149880111217499 -0.6475309729576111 -0.6336020231246948 -0.4233820140361786
          -0.5850719809532166 -0.7775599956512451 -0.23041599988937378 -0.7383739948272705 -0.6684730052947998 -0.08914799988269806
          -0.8560640215873718 -0.5149239897727966 -0.04481099918484688 -0.795993983745575 -0.6051390171051025 -0.014201999641954899
          -0.7922520041465759 -0.6100819706916809 -0.011706000193953514 0.08112700283527374 0.04528899863362312 -0.9956740140914917
          -0.01959099993109703 0.29855701327323914 -0.9541910290718079 -0.008232000283896923 0.614205002784729 -0.7891039848327637
          -0.12614700198173523 0.6607959866523743 -0.7398890256881714 0.037769999355077744 -0.181535005569458 -0.9826589822769165
          -0.1402209997177124 -0.4588789939880371 -0.8773639798164368 -0.12672999501228333 0.8828009963035583 -0.45232900977134705
          -0.037429001182317734 0.9342799782752991 -0.3545700013637543 -0.18045300245285034 0.9302679896354675 -0.3194330036640167
          -0.1854259967803955 0.8482210040092468 -0.49612298607826233 -0.2537960112094879 0.8049349784851074 -0.5363460183143616
          -0.290010005235672 0.78131502866745 0.5526679754257202 -0.5941179990768433 0.5722259879112244 0.5653150081634521
          -0.09322399646043777 0.9518359899520874 0.2920910120010376 -0.6503909826278687 0.6470940113067627 0.39781999588012695
          -0.3492250144481659 0.8119419813156128 0.46775200963020325 -0.4477579891681671 0.6825739741325378 0.5775859951972961
          -0.13330799341201782 0.804947018623352 0.5781779885292053 -0.09928199648857117 0.9749569892883301 -0.19900399446487427
          -0.1509920060634613 0.9870949983596802 -0.053332000970840454 -0.38581299781799316 0.7642530202865601 0.5167829990386963
          -0.23546800017356873 0.8098959922790527 0.5372359752655029 -0.7569950222969055 0.518222987651825 0.39799898862838745
          -0.8757110238075256 0.31607499718666077 0.36500099301338196 -0.9484999775886536 0.10437300056219101 0.2990890145301819