<?xml version="1.0"?>
<VTKFile type="PolyData" version="0.1" byte_order="LittleEndian" header_type="UInt32" compressor="vtkZLibDataCompressor">
  <PolyData>
    <Piece NumberOfPoints="776" NumberOfVerts="0" NumberOfLines="0" NumberOfStrips="0" NumberOfPolys="1564">
      <PointData Normals="Normals">
        <DataArray type="Float32" Name="Normals" NumberOfComponents="3" format="ascii" RangeMin="0.9999992925426986" RangeMax="1.0000007505427155">
          0.21617799997329712 0.9249510169029236 0.31262099742889404 0.15930800139904022 0.941120982170105 0.29818201065063477
          0.20228999853134155 0.9363260269165039 0.2870059907436371 0.06574799865484238 0.941353976726532 0.330953985452652
          0.11628399789333344 0.9375219941139221 0.32791998982429504 0.256507009267807 0.8961499929428101 0.36210399866104126
          0.17841799557209015 0.9494140148162842 0.258419007062912 0.0661420002579689 0.968379020690918 0.24055799841880798
          0.03579900041222572 0.953980028629303 0.29772600531578064 0.05966399982571602 0.955062985420227 0.290336012840271
          0.2409600019454956 0.9079830050468445 0.34279000759124756 0.23224499821662903 0.9464319944381714 0.22433899343013763
          0.18650099635124207 0.9591659903526306 0.21264399588108063 0.13347700238227844 0.9487259984016418 0.28653600811958313
          0.1548530012369156 0.9120230078697205 0.3797819912433624 -0.029217999428510666 0.9495450258255005 0.3122679889202118
          0.13584500551223755 0.9243249893188477 0.3566089868545532 -0.12477900087833405 0.9618250131607056 0.2435619980096817
          0.030980000272393227 0.9414070248603821 0.33584800362586975 0.027354000136256218 0.9335569739341736 0.35738399624824524
          0.13086900115013123 0.9696429967880249 0.20655900239944458 0.040509000420570374 0.9825130105018616 0.18173499405384064
          -0.0541049987077713 0.9797899723052979 0.1925709992647171 0.3677990138530731 0.8563539981842041 0.3624660074710846
          0.2963370084762573 0.8813009858131409 0.36809399724006653 0.16889800131320953 0.9591659903526306 0.22687900066375732
          0.17126700282096863 0.9674819707870483 0.1861339956521988 0.3097899854183197 0.9261299967765808 0.21520400047302246
          0.3671649992465973 0.8814550042152405 0.2970319986343384 0.117747001349926 0.9252730011940002 0.3605619966983795
          0.27396100759506226 0.8639439940452576 0.42254799604415894 0.07593899965286255 0.9495819807052612 0.3041830062866211
          0.22573299705982208 0.9236879944801331 0.3095879852771759 0.02997099980711937 0.9414979815483093 0.3356829881668091
          0.1131649985909462 0.9332219958305359 0.34101399779319763 0.28768599033355713 0.8922839760780334 0.3479439914226532
          -0.1939529925584793 0.9501720070838928 0.24403899908065796 -0.11831600219011307 0.9631220102310181 0.24165700376033783
          -0.1927179992198944 0.963126003742218 0.18774600327014923 -0.2269439995288849 0.9434769749641418 0.24155299365520477
          -0.19282999634742737 0.9258220195770264 0.3250710070133209 0.02778100036084652 0.9275050163269043 0.37277600169181824
          0.22390100359916687 0.8788759708404541 0.42124199867248535 -0.21987399458885193 0.948074996471405 0.22980399429798126
          -0.34334900975227356 0.9008880257606506 0.2655400037765503 0.1378069967031479 0.9643599987030029 0.22587400674819946
          -0.032625000923871994 0.9802889823913574 0.19485899806022644 0.09473100304603577 0.9644929766654968 0.2465360015630722
          -0.1243479996919632 0.9722499847412109 0.1981620043516159 -0.13506099581718445 0.9735000133514404 0.1845420002937317
          -0.05822499841451645 0.979308009147644 0.19381999969482422 -0.16259999573230743 0.9732149839401245 0.16252100467681885
          0.6960440278053284 0.6680639982223511 0.2630839943885803 0.738178014755249 0.5956649780273438 0.31666299700737
          0.7149320244789124 0.5757039785385132 0.3967840075492859 0.14180199801921844 0.9537230134010315 0.2651500105857849
          0.1990250051021576 0.9527930021286011 0.22928999364376068 0.41960999369621277 0.8719249963760376 0.2523379921913147
          0.6279109716415405 0.7378749847412109 0.24752500653266907 0.2675420045852661 0.8822519779205322 0.38736599683761597
          0.3365060091018677 0.8381580114364624 0.42925000190734863 0.6314589977264404 0.7172480225563049 0.29464200139045715
          0.54762202501297 0.8012070059776306 0.24120000004768372 0.47794100642204285 0.7686489820480347 0.42514899373054504
          0.7695189714431763 0.5976150035858154 0.22515900433063507 0.12445800006389618 0.9375140070915222 0.3249259889125824
          0.8400229811668396 0.4980680048465729 0.21515099704265594 -0.08577799797058105 0.9659649729728699 0.24403700232505798
          -0.1799910068511963 0.9556260108947754 0.23319900035858154 -0.050815001130104065 0.96144700050354 0.27025601267814636
          -0.05992899835109711 0.9663069844245911 0.2503199875354767 -0.14386799931526184 0.9587529897689819 0.24514399468898773
          -0.17688299715518951 0.9284719824790955 0.32657501101493835 -0.3797920048236847 0.8816120028495789 0.2802099883556366
          0.15760600566864014 0.8982149958610535 0.41032999753952026 0.0020810000132769346 0.9688500165939331 0.24764199554920197
          -0.2646839916706085 0.9296619892120361 0.2562659978866577 -0.1110600009560585 0.9581140279769897 0.26397600769996643
          -0.41661399602890015 0.8747559785842896 0.24745500087738037 -0.24291400611400604 0.9402070045471191 0.23875300586223602
          -0.12153500318527222 0.9661200046539307 0.22768600285053253 -0.08328799903392792 0.9683979749679565 0.23509299755096436
          -0.0019130000146105886 0.9275439977645874 0.3737089931964874 0.16839200258255005 0.9425439834594727 0.28853899240493774
          -0.22195099294185638 0.9656069874763489 0.13542400300502777 -0.18693499267101288 0.9402580261230469 0.28455400466918945
          -0.22971899807453156 0.9047620296478271 0.35865598917007446 -0.18527600169181824 0.9708359837532043 0.15215399861335754
          -0.16714699566364288 0.9315130114555359 0.3230249881744385 -0.12853099405765533 0.9563850164413452 0.26231399178504944
          -0.15425999462604523 0.9645619988441467 0.21406400203704834 -0.19953900575637817 0.9524890184402466 0.23010599613189697
          -0.21766699850559235 0.9619979858398438 0.16486899554729462 0.8662660121917725 0.4626539945602417 0.18850700557231903
          0.9017390012741089 0.3944909870624542 0.17675699293613434 0.9360889792442322 0.25564900040626526 0.24162299931049347
          0.9416000247001648 0.2263990044593811 0.24926400184631348 0.939158022403717 0.27416500449180603 0.20692099630832672
          0.07101599872112274 0.9001110196113586 0.42983299493789673 0.15154799818992615 0.8730120062828064 0.4635559916496277
          0.3551670014858246 0.9026169776916504 0.24318499863147736 0.24091699719429016 0.9109690189361572 0.3348050117492676
          0.5425670146942139 0.7890530228614807 0.28812599182128906 0.5145949721336365 0.7852219939231873 0.3444100022315979
          0.7830650210380554 0.5293520092964172 0.32648900151252747 0.33346301317214966 0.8049569725990295 0.49076101183891296
          0.3547930121421814 0.8189550042152405 0.4510369896888733 0.9138020277023315 0.2849400043487549 0.28943899273872375
          0.9882799983024597 0.11348400264978409 0.10209599882364273 0.9841830134391785 -0.005510000046342611 0.1770700067281723
          0.9682899713516235 0.1799740046262741 0.17327499389648438 0.603751003742218 0.6382840275764465 0.47757598757743835
          0.8873699903488159 0.31807300448417664 0.33377400040626526 0.96185702085495 0.19272300601005554 0.19413599371910095
          0.9918069839477539 0.09540899842977524 0.08495000004768372 -0.04266500100493431 0.9666590094566345 0.25248900055885315
          -0.060453999787569046 0.9638710021972656 0.2594200074672699 -0.1094219982624054 0.9221889972686768 0.3709369897842407
          -0.3349199891090393 0.8786389827728271 0.3403260111808777 -0.2973420023918152 0.9224269986152649 0.2464050054550171
          -0.3943130075931549 0.8705559968948364 0.2943609952926636 0.2889710068702698 0.8385940194129944 0.46179699897766113
          0.05622699856758118 0.9096919894218445 0.4114600121974945 -0.48464399576187134 0.8711360096931458 0.07900899648666382
          -0.05452299863100052 0.9717010259628296 0.22983700037002563 -0.20264700055122375 0.9664930105209351 0.15756000578403473
          0.0807960033416748 0.9487550258636475 0.3055109977722168 -0.5370439887046814 0.8391100168228149 -0.0864809975028038
          -0.1916469931602478 0.827551007270813 0.5276650190353394 -0.08412099629640579 0.7629629969596863 0.6409450173377991
          0.14720100164413452 0.8705040216445923 0.469633013010025 0.21970899403095245 0.669842004776001 0.7092530131340027
          -0.2962679862976074 0.8184980154037476 0.4922260046005249 -0.2531999945640564 0.9243230223655701 0.28551000356674194
          -0.3016499876976013 0.7148849964141846 0.6308299899101257 -0.28727900981903076 0.9510049819946289 0.1142830029129982
          -0.12652400135993958 0.949338972568512 0.2876569926738739 -0.3688969910144806 0.9111760258674622 0.18350599706172943
          -0.187281996011734 0.9559800028800964 0.22589200735092163 -0.24234500527381897 0.9348139762878418 0.2595970034599304
          -0.5091750025749207 0.8564140200614929 0.0854090005159378 -0.49889200925827026 0.8598089814186096 0.10879000276327133
          -0.5230540037155151 0.8417810201644897 0.13348999619483948 -0.4715070128440857 0.8762620091438293 0.09922400116920471
          0.9678390026092529 0.21391700208187103 0.1323930025100708 0.902658998966217 0.33812499046325684 0.2662310004234314
          0.99481201171875 0.08000800013542175 0.06283000111579895 0.997992992401123 -0.05851899832487106 0.02417900040745735
          0.996973991394043 -0.03725000098347664 0.06823600083589554 0.06778199970722198 0.5377990007400513 0.8403440117835999
          0.2818880081176758 0.788748025894165 0.5462750196456909 0.08607599884271622 0.6293910145759583 0.7723069787025452
          0.11668100208044052 0.5689200162887573 0.8140739798545837 0.449849009513855 0.806617021560669 0.3834120035171509
          0.7054910063743591 0.5649589896202087 0.42790699005126953 0.8869190216064453 0.2895149886608124 0.35993799567222595
          0.9529849886894226 0.18487900495529175 0.2400829941034317 0.23271499574184418 0.8129540085792542 0.5338060259819031
          0.1043820008635521 0.8616979718208313 0.4965690076351166 0.39491599798202515 0.7307699918746948 0.5567910075187683
          0.9649289846420288 -0.26248699426651 0.0035459999926388264 0.9939919710159302 -0.10831300169229507 0.015759000554680824
          0.9757869839668274 -0.21781200170516968 -0.01992800086736679 0.9843909740447998 -0.12670999765396118 0.12214100360870361
          0.9591670036315918 -0.2807619869709015 0.0342320017516613 0.8879269957542419 0.27519500255584717 0.368584007024765
          0.8758019804954529 0.23466399312019348 0.42178699374198914 0.9752860069274902 -0.1732970029115677 0.13705700635910034
          0.9877769947052002 -0.08986300230026245 0.12736199796199799 -0.19908300042152405 0.8980609774589539 0.3922399878501892
          -0.41854700446128845 0.8370559811592102 0.35235700011253357 -0.3950580060482025 0.827767014503479 0.39841100573539734
          -0.5520849823951721 0.8327670097351074 0.0412449985742569 -0.6110399961471558 0.7459210157394409 0.2650130093097687
          -0.60418701171875 0.7685279846191406 0.21052999794483185 -0.5795220136642456 0.8038370013237 0.13416600227355957
          -0.14928199350833893 0.88816899061203 0.43459200859069824 -0.6160849928855896 0.7852609753608704 -0.06167599931359291
          -0.8156269788742065 0.5651900172233582 -0.12374699860811234 -0.8883399963378906 0.35802000761032104 -0.2875309884548187
          -0.9335470199584961 0.26666900515556335 -0.23953600227832794 -0.9012809991836548 0.29193300008773804 -0.32010599970817566
          -0.9075239896774292 0.24224300682544708 -0.34310200810432434 -0.19481199979782104 0.5452889800071716 0.8152959942817688
          0.19235500693321228 0.4694730043411255 0.8617389798164368 0.09336800128221512 0.26509401202201843 0.9596909880638123
          -0.3865100145339966 0.6212509870529175 0.6816580295562744 -0.4127489924430847 0.7618669867515564 0.49919599294662476
          -0.4016219973564148 0.9045389890670776 0.14320999383926392 -0.5467299818992615 0.8015609979629517 0.24204500019550323
          -0.30869001150131226 0.3149850070476532 0.8974940180778503 -0.4207940101623535 0.33561399579048157 0.8427910208702087
          -0.5190359950065613 0.8492389917373657 0.09692300111055374 -0.6936659812927246 0.717985987663269 -0.057659000158309937
          -0.863306999206543 0.45228201150894165 -0.22392399609088898 -0.7497550249099731 0.657584011554718 -0.07383300364017487
          -0.8471590280532837 0.5292209982872009 -0.04740399867296219 -0.7495830059051514 0.6517710089683533 -0.1154170036315918
          -0.8219360113143921 0.540440022945404 -0.1798509955406189 -0.7382299900054932 0.6733109951019287 0.04086599871516228
          0.9803910255432129 -0.12759000062942505 0.150177001953125 0.974951982498169 -0.22234299778938293 -0.005681000184267759
          0.971697986125946 -0.2175779938697815 -0.0919950008392334 0.9701240062713623 -0.24179799854755402 -0.01981000043451786
          0.9553390145301819 -0.27834001183509827 -0.0992719978094101 0.8848270177841187 -0.44722500443458557 -0.13065899908542633
          0.009517000056803226 0.15294300019741058 0.9881889820098877 0.14589400589466095 0.1286340057849884 0.9809020161628723
          -0.01016599964350462 0.18433499336242676 0.9828109741210938 0.28949499130249023 0.5346689820289612 0.7939280271530151
          0.5821719765663147 0.6080139875411987 0.5398100018501282 0.4381900131702423 0.49344998598098755 0.7513300180435181
          0.12277500331401825 0.12724100053310394 0.9842439889907837 0.81523197889328 0.1710509955883026 0.5532969832420349
          0.9435200095176697 -0.0705379992723465 0.3237200081348419 0.8486840128898621 -0.23198699951171875 0.47530800104141235
          0.1413400024175644 0.8207299709320068 0.5535569787025452 0.20576399564743042 0.8057910203933716 0.5553029775619507
          -0.07921800017356873 0.8859660029411316 0.45693400502204895 -0.09779000282287598 0.8767129778862 0.47096800804138184
          0.31144100427627563 0.7551770210266113 0.5768120288848877 0.5440400242805481 0.61701899766922 0.5686020255088806
          0.8537350296974182 -0.5092229843139648 -0.10875999927520752 0.9050160050392151 -0.4170759916305542 -0.08362500369548798
          0.8844950199127197 -0.43548598885536194 -0.16739200055599213 0.9501270055770874 -0.3002220094203949 -0.08441200107336044
          0.9396029710769653 -0.341729998588562 0.019171999767422676 0.672124981880188 0.49939799308776855 0.546671986579895
          0.9566239714622498 -0.24185800552368164 0.16240400075912476 0.9091870188713074 -0.4154900014400482 -0.027341000735759735
          0.8573859930038452 -0.5099769830703735 -0.06937400251626968 -0.2830989956855774 0.867618978023529 0.40876999497413635
          -0.6659889817237854 0.6681600213050842 0.33169400691986084 -0.5531880259513855 0.7136989831924438 0.4296720027923584
          -0.3123309910297394 0.8436819911003113 0.43663400411605835 -0.8460429906845093 0.5262500047683716 -0.08527199923992157
          -0.8524479866027832 0.5022799968719482 0.14507700502872467 -0.7999740242958069 0.5995140075683594 0.024988999590277672
          -0.8903599977493286 0.45523801445961 0.004230999853461981 -0.2230750024318695 0.8364560008049011 0.500577986240387
          -0.8891429901123047 0.24540099501609802 -0.3862679898738861 -0.86524897813797 0.43308401107788086 -0.25255098938941956
          -0.8981990218162537 -0.10582000017166138 -0.42666101455688477 -0.9246060252189636 -0.02297299914062023 -0.3802320063114166
          -0.9504640102386475 0.08959999680519104 -0.29763901233673096 -0.8889110088348389 -0.17364400625228882 -0.423893004655838
          0.2093919962644577 -0.10339199751615524 0.972350001335144 -0.12075400352478027 -0.2442920058965683 0.962153971195221
          -0.2032500058412552 0.1709890067577362 0.9640809893608093 -0.4550899863243103 0.43231400847435 0.7784590125083923
          -0.5276430249214172 0.135794997215271 0.8385419845581055 -0.6397709846496582 0.6362900137901306 0.4310779869556427
          -0.7904170155525208 0.5973910093307495 0.1355150043964386 -0.41493499279022217 -0.01885800063610077 0.9096559882164001
          -0.5401600003242493 -0.08193200081586838 0.837565004825592 -0.8920090198516846 0.016575999557971954 -0.4517129957675934
          -0.912854015827179 0.21148599684238434 -0.34924501180648804 -0.8900409936904907 0.1402370035648346 -0.43377500772476196
          -0.8785930275917053 -0.045820001512765884 -0.47536900639533997 -0.9587249755859375 0.21845099329948425 -0.18200699985027313
          -0.871999979019165 0.4809580147266388 -0.09107600152492523 -0.9080939888954163 0.3576729893684387 -0.2177949994802475
          -0.9671819806098938 0.252377986907959 -0.029395999386906624 0.9030010104179382 -0.425260990858078 0.0611720010638237
          0.8860470056533813 -0.3883199989795685 0.25323501229286194 0.9085879921913147 -0.3983539938926697 -0.12562599778175354
          0.8597999811172485 -0.5058900117874146 -0.0694189965724945 0.8417990207672119 -0.5107870101928711 -0.17455999553203583
          0.8508890271186829 -0.49946099519729614 -0.16287100315093994 0.6773409843444824 -0.6709460020065308 -0.3017300069332123
          0.6801779866218567 -0.691635012626648 -0.24289800226688385 0.050230998545885086 -0.2651129961013794 0.9629080295562744
          0.27562299370765686 -0.44036799669265747 0.8544639945030212 0.029901999980211258 -0.16272200644016266 0.9862189888954163
          0.3221690058708191 0.14762400090694427 0.9351009726524353 0.6763780117034912 0.3370850086212158 0.6548939943313599
          0.4584980010986328 0.05335799977183342 0.8870919942855835 -0.0025530001148581505 -0.5129799842834473 0.8583970069885254
          0.24188800156116486 -0.14893700182437897 0.9588059782981873 0.6895089745521545 -0.14774900674819946 0.7090470194816589
          0.6101379990577698 -0.3688009977340698 0.7012249827384949 0.6779969930648804 -0.18196600675582886 0.7121859788894653
          0.8484600186347961 -0.4280700087547302 0.3112429976463318 0.7352790236473083 -0.4072900116443634 0.5417370200157166
          0.6186959743499756 -0.42065000534057617 0.6635280251502991 -0.048243001103401184 0.8536289930343628 0.518642008304596
          0.16957299411296844 0.76385897397995 0.6227070093154907 0.3625589907169342 0.6716910004615784 0.6460520029067993
          0.7457579970359802 -0.6364359855651855 -0.19696100056171417 0.7020419836044312 -0.6699050068855286 -0.24158799648284912
          0.6325870156288147 -0.7244920134544373 -0.27375999093055725 0.7057759761810303 -0.6796240210533142 -0.19998100399971008
          0.6889870166778564 -0.6957380175590515 -0.20309099555015564 0.7028250098228455 -0.6838089823722839 -0.1960649937391281
          0.7608500123023987 -0.6074529886245728 -0.2282709926366806 0.8690609931945801 0.12842600047588348 0.477744996547699
          0.9368150234222412 -0.3470210134983063 0.044206999242305756 0.7575780153274536 -0.6181120276451111 -0.2097959965467453
          0.7718719840049744 -0.6253960132598877 -0.11442700028419495 0.7954829931259155 -0.5929309725761414 -0.1250610053539276
          0.6952469944953918 -0.6833500266075134 -0.22285400331020355 -0.9339569807052612 0.3425999879837036 0.10173100233078003
          -0.4494970142841339 0.6974830031394958 0.5580959916114807 -0.9184949994087219 0.33504098653793335 0.21003200113773346
          -0.9842789769172668 0.15044599771499634 -0.09252399951219559 -0.9680119752883911 0.21958200633525848 -0.12139199674129486
          -0.9382510185241699 -0.13812799751758575 -0.31718501448631287 -0.11047299951314926 0.8116750121116638 0.5735669732093811
          -0.19538800418376923 0.7521340250968933 0.6293789744377136 -0.2577289938926697 0.7648259997367859 0.5904380083084106
          -0.8299030065536499 -0.2164669930934906 -0.5142019987106323 -0.7652990221977234 -0.3945479989051819 -0.508575975894928
          -0.865077018737793 -0.23642699420452118 -0.4424290060997009 -0.715237021446228 -0.4921819865703583 -0.4961790144443512
          -0.7792019844055176 -0.39218801259994507 -0.4889099895954132 -0.8720539808273315 -0.2904990017414093 -0.39386799931526184
          -0.8142930269241333 -0.3362239897251129 -0.47315898537635803 -0.732092022895813 -0.47077399492263794 -0.49235498905181885
          0.12452100217342377 -0.6949449777603149 0.7081990242004395 -0.49483799934387207 -0.5530480146408081 0.670278012752533
          -0.27042698860168457 -0.7580779790878296 0.5934529900550842 -0.5768399834632874 0.35496601462364197 0.7357000112533569
          -0.3951370120048523 -0.31903600692749023 0.8614420294761658 -0.43205100297927856 -0.09751799702644348 0.8965610265731812
          -0.49760499596595764 -0.5358099937438965 0.6821269989013672 -0.8633869886398315 0.42792901396751404 0.26728200912475586
          -0.7829470038414001 0.36215201020240784 0.5058069825172424 -0.9820719957351685 0.1651570051908493 0.0908690020442009
          -0.8182690143585205 -0.2506310045719147 -0.5173199772834778 -0.9300959706306458 -0.019543999806046486 -0.36679700016975403
          -0.9044960141181946 0.03349300101399422 -0.42516499757766724 -0.8615790009498596 -0.096001997590065 -0.4984630048274994
          -0.8828579783439636 -0.026327000930905342 -0.46890100836753845 -0.8480669856071472 -0.1629370003938675 -0.5042160153388977
          -0.873386025428772 -0.09896200150251389 -0.4768669903278351 -0.9773210287094116 -0.1918340027332306 -0.08968199789524078
          -0.9325050115585327 -0.22528499364852905 -0.28227698802948 -0.9737520217895508 -0.21783900260925293 0.06597500294446945
          0.8213899731636047 -0.5565289855003357 0.12487699836492538 0.7946239709854126 -0.5700119733810425 -0.2089489996433258
          0.7600880265235901 -0.6355810165405273 -0.13529199361801147 0.6680830121040344 -0.7019259929656982 -0.24691100418567657
          0.5946800112724304 -0.7371469736099243 -0.32089099287986755 0.5884460210800171 -0.7223960161209106 -0.36314600706100464
          0.6039170026779175 -0.7098760008811951 -0.36243700981140137 0.6934490203857422 -0.6487590074539185 -0.3134329915046692
          0.5734429955482483 -0.7665460109710693 -0.2890850007534027 0.10078399628400803 -0.7275710105895996 0.6785889863967896
          0.2533929944038391 -0.7258719801902771 0.6394550204277039 0.296627014875412 -0.4092220067977905 0.8628730177879333
          -0.12051499634981155 -0.6828449964523315 0.7205550074577332 -0.1407579928636551 -0.6519889831542969 0.745048999786377
          0.8247050046920776 -0.502219021320343 0.2600719928741455 0.7710700035095215 -0.4504550099372864 0.45004600286483765
          0.3589380085468292 -0.4961020052433014 0.79059898853302 -0.07767000049352646 0.8500009775161743 0.5210229754447937
          -0.0032510000746697187 0.8068860173225403 0.5906980037689209 0.13871699571609497 0.7180899977684021 0.6819859743118286
          0.35694700479507446 0.6311349868774414 0.6886640191078186 0.5411990284919739 -0.7857660055160522 -0.2994590103626251
          0.5396909713745117 -0.793425977230072 -0.28143998980522156 0.36324799060821533 -0.8669059872627258 -0.3413580060005188
          0.5151249766349792 -0.7987849712371826 -0.31078699231147766 0.4722520112991333 -0.8138009905815125 -0.33868300914764404
          0.48930200934410095 -0.8208420276641846 -0.294622004032135 0.8977190256118774 -0.15279899537563324 0.413222998380661
          0.5243510007858276 0.45954999327659607 0.7168470025062561 0.8159250020980835 -0.5511230230331421 0.17472900450229645
          0.7850459814071655 -0.6190609931945801 -0.021591000258922577 0.7788879871368408 -0.6201729774475098 -0.09337399899959564
          0.5299400091171265 -0.7814880013465881 -0.32930299639701843 0.5387840270996094 -0.7728099822998047 -0.33537599444389343
          0.6051130294799805 -0.7408090233802795 -0.2916159927845001 0.6176239848136902 -0.7521640062332153 -0.22976000607013702
          0.43929699063301086 -0.8329020142555237 -0.3365879952907562 -0.9953089952468872 -0.013086999766528606 -0.09585899859666824
          -0.975612998008728 0.024356000125408173 -0.21814100444316864 -0.9269430041313171 -0.1934729963541031 -0.32147398591041565
          -0.858519971370697 0.3878139853477478 0.33547401428222656 -0.2684459984302521 0.6919659972190857 0.6701639890670776
          -0.5775169730186462 0.6000589728355408 0.5535370111465454 -0.985692024230957 -0.15085500478744507 -0.07518800348043442
          -0.966804027557373 -0.22183099389076233 -0.12680800259113312 -0.9245089888572693 -0.2218949943780899 -0.30991101264953613
          -0.7689020037651062 -0.4703649878501892 -0.4330669939517975 -0.754135012626648 -0.45395100116729736 -0.47456100583076477
          -0.771431028842926 -0.4256190061569214 -0.47301599383354187 -0.0729300007224083 0.824599027633667 0.5609980225563049
          -0.07630100101232529 0.7577589750289917 0.6480579972267151 -0.7355989813804626 -0.4210459887981415 -0.5306730270385742
          -0.6087830066680908 -0.5889790058135986 -0.5314949750900269 -0.5804349780082703 -0.6326339840888977 -0.5127080082893372
          -0.6579579710960388 -0.5543699860572815 -0.5096709728240967 -0.5002409815788269 -0.7011150121688843 -0.5081310272216797
          -0.46909299492836 -0.7085710167884827 -0.5271419882774353 -0.6975470185279846 -0.519415020942688 -0.4935950040817261
          -0.6476020216941833 -0.551118016242981 -0.5261949896812439 -0.67085200548172 -0.5350419878959656 -0.5135049819946289
          -0.5634160041809082 -0.665198028087616 -0.4899730086326599 -0.03269900009036064 -0.7777400016784668 0.6277350187301636
          -0.39478799700737 -0.7227569818496704 0.5672429800033569 -0.4395830035209656 -0.7337700128555298 0.5180230140686035
          -0.5251039862632751 -0.726032018661499 0.4440079927444458 -0.6696810126304626 -0.23773400485515594 0.7035689949989319
          -0.2950820028781891 -0.6398199796676636 0.709617018699646 -0.25025299191474915 -0.7572659850120544 0.6032590270042419
          -0.9232010245323181 -0.07508199661970139 0.376911997795105 -0.6831129789352417 -0.4599049985408783 -0.567313015460968
          -0.7049090266227722 -0.40630799531936646 -0.5813919901847839 -0.8020439743995667 -0.33631500601768494 -0.4935770034790039
          -0.7825000286102295 -0.28438600897789 -0.5539119839668274 -0.9283829927444458 -0.35604798793792725 -0.10646499693393707
          -0.9152179956436157 -0.39476901292800903 -0.08082800358533859 -0.8731380105018616 -0.45474499464035034 -0.17560599744319916
          -0.7530450224876404 -0.5317239761352539 -0.3875479996204376 -0.9572870135307312 -0.2823280096054077 0.06239200010895729
          -0.7255539894104004 -0.4458119869232178 0.5242360234260559 0.7545530200004578 -0.6434239745140076 0.12905900180339813
          0.6500759720802307 -0.7014439702033997 -0.2921929955482483 0.674580991268158 -0.7049750089645386 -0.21897399425506592
          0.6924470067024231 -0.7195010185241699 -0.05325400084257126 0.46497300267219543 -0.7779620289802551 -0.4225809872150421
          0.41251298785209656 -0.8274520039558411 -0.3809930086135864 0.6038269996643066 -0.7402129769325256 -0.29576700925827026
          0.46192100644111633 -0.8242189884185791 -0.32755500078201294 0.11130300164222717 -0.6635429859161377 0.7398130297660828
          0.20388199388980865 -0.5141710042953491 0.8331030011177063 -0.10272800177335739 -0.5597590208053589 0.8222630023956299
          -0.03265500068664551 -0.5604910254478455 0.8275169730186462 -0.12089800089597702 -0.476608008146286 0.8707630038261414
          0.4789530038833618 -0.5814689993858337 0.6576460003852844 -0.11174499988555908 0.8003939986228943 0.5889670252799988
          0.2623389959335327 0.6158940196037292 0.7428680062294006 -0.06865599751472473 0.7531020045280457 0.654312014579773
          0.09744100272655487 0.6408259868621826 0.761476993560791 0.40606701374053955 -0.8461599946022034 -0.3451420068740845
          0.16550800204277039 -0.9065970182418823 -0.3881880044937134 0.2045380026102066 -0.9001749753952026 -0.38451099395751953
          0.3714030086994171 -0.8548099994659424 -0.3624359965324402 0.10113800317049026 -0.9009919762611389 -0.4218820035457611
          0.23440800607204437 -0.8722990155220032 -0.42912399768829346 0.1931850016117096 -0.9013460278511047 -0.3876290023326874
          0.29999300837516785 -0.8878229856491089 -0.3489609956741333 0.21829600632190704 -0.8794869780540466 -0.4229069948196411
          0.2997890114784241 -0.8581200242042542 -0.4168420135974884 0.2434689998626709 -0.8750380277633667 -0.41836801171302795
          0.6939219832420349 0.2972019910812378 0.6558529734611511 0.9084839820861816 -0.3758400082588196 0.18275700509548187
          0.9588239789009094 -0.23136399686336517 0.16470499336719513 0.6238920092582703 -0.7732189893722534 -0.11353699862957001
          0.8741989731788635 -0.48525500297546387 0.017403999343514442 0.4203920066356659 -0.8567150235176086 -0.2988469898700714
          0.29168200492858887 -0.8558239936828613 -0.42718398571014404 0.3728199899196625 -0.8349559903144836 -0.40478798747062683
          0.22901000082492828 -0.8559929728507996 -0.4634990096092224 0.3337379992008209 -0.8264449834823608 -0.45343899726867676
          0.38024601340293884 -0.8256829977035522 -0.4167270064353943 -0.8695020079612732 -0.34321698546409607 -0.35520100593566895
          -0.7548670172691345 -0.4870629906654358 -0.4392549991607666 -0.9814839959144592 0.14582200348377228 0.12419400364160538