<?xml version="1.0"?>
<VTKFile type="PolyData" version="0.1" byte_order="LittleEndian" header_type="UInt32" compressor="vtkZLibDataCompressor">
  <PolyData>
    <Piece NumberOfPoints="448" NumberOfVerts="0" NumberOfLines="0" NumberOfStrips="0" NumberOfPolys="916">
      <PointData Normals="Normals">
        <DataArray type="Float32" Name="Normals" NumberOfComponents="3" format="ascii" RangeMin="0.9999992083517772" RangeMax="1.0000007153250694">
          0.4218690097332001 0.7650610208511353 -0.4865260124206543 0.14169800281524658 0.5403779745101929 -0.8294050097465515
          0.060795001685619354 0.9745540022850037 -0.2157520055770874 0.4297420084476471 0.8968830108642578 -0.10451100021600723
          0.6815029978752136 0.6005560159683228 -0.4181939959526062 0.585677981376648 0.11853999644517899 -0.8018289804458618
          -0.2468709945678711 0.9071999788284302 -0.3406510055065155 0.023368999361991882 0.99760901927948 0.06503999978303909
          -0.23302699625492096 0.6967059969902039 -0.6784530282020569 0.11929900199174881 0.9865260124206543 0.11195799708366394
          0.05628199875354767 0.9935470223426819 0.09847500175237656 0.5243560075759888 0.8457260131835938 0.09899000078439713
          -0.13381999731063843 0.13464100658893585 -0.9818170070648193 0.19198699295520782 -0.19587799906730652 -0.9616510272026062
          0.7274630069732666 -0.019235000014305115 -0.6858770251274109 0.7315300107002258 0.6456909775733948 -0.218967005610466
          -0.29792699217796326 0.9444680213928223 -0.13863399624824524 -0.3767409920692444 0.9103450179100037 -0.1712850034236908
          -0.06500399857759476 0.993465006351471 0.0938199982047081 0.02921699918806553 0.97222900390625 0.2321999967098236
          -0.383076012134552 0.3483150005340576 -0.8555290102958679 -0.49905601143836975 0.7189339995384216 -0.483815997838974
          0.09895800054073334 0.9620540142059326 0.25428199768066406 0.3760479986667633 0.8873069882392883 0.26697400212287903
          0.12522399425506592 0.9103999733924866 0.394322007894516 0.03657199814915657 -0.5835769772529602 -0.8112339973449707
          0.33198100328445435 -0.45721301436424255 -0.8250730037689209 0.9037899971008301 0.2610819935798645 -0.33911600708961487
          -0.6201969981193542 0.7197750210762024 -0.31189700961112976 -0.3680869936943054 0.9228950142860413 0.11303000152111053
          -0.11403500288724899 0.9683120250701904 0.22218799591064453 -0.042052000761032104 0.9035429954528809 0.42642998695373535
          -0.33545801043510437 -0.3616369962692261 -0.8698779940605164 -0.6679450273513794 0.6057549715042114 -0.43233099579811096
          0.8870229721069336 0.4616999924182892 -0.00481100007891655 0.4888879954814911 0.8287370204925537 0.272367000579834
          0.3897880017757416 0.7865539789199829 0.4789550006389618 0.11990699917078018 0.8642370104789734 0.4885860085487366
          -0.0733570009469986 -0.4133870005607605 -0.9075959920883179 0.6465749740600586 -0.5580220222473145 -0.5201470255851746
          0.9458140134811401 -0.0941689983010292 -0.3107529878616333 -0.7202309966087341 0.6476579904556274 -0.24860699474811554
          -0.2299569994211197 0.8838689923286438 0.40730300545692444 -0.43697598576545715 0.8423020243644714 0.31556299328804016
          -0.05561000108718872 0.8294789791107178 0.5557630062103271 -0.07573399692773819 0.8302919864654541 0.5521600246429443
          -0.1352040022611618 0.8016300201416016 0.5823320150375366 -0.7104309797286987 0.3533959984779358 -0.6086040139198303
          0.9810799956321716 0.13582700490951538 0.13796299695968628 0.7849149703979492 0.5715600252151489 0.23922500014305115
          0.057068999856710434 0.8212069869041443 0.5677689909934998 0.05127599835395813 0.7208390235900879 0.6912029981613159
          0.857213020324707 0.4492749869823456 0.2516689896583557 0.7431719899177551 0.41166600584983826 0.5274710059165955
          0.0694580003619194 -0.7299000024795532 -0.6800159811973572 0.28712698817253113 -0.6660680174827576 -0.6884120106697083
          0.09597700089216232 -0.8415340185165405 -0.5316100120544434 0.06467600166797638 -0.7771180272102356 -0.62602299451828
          -0.0018230000277981162 -0.7039909958839417 -0.7102059721946716 0.867825984954834 -0.42496201395988464 -0.2574569880962372
          -0.8199319839477539 0.3170489966869354 -0.4766460061073303 -0.8405060172080994 0.21514199674129486 -0.4972569942474365
          -0.6254469752311707 0.7733169794082642 0.1039080023765564 -0.5653570294380188 0.769370973110199 0.2973870038986206
          -0.3821159899234772 0.7799230217933655 0.4956890046596527 -0.11796899884939194 0.7778800129890442 0.6172400116920471
          -0.13975800573825836 0.7936729788780212 0.5920739769935608 -0.5782129764556885 -0.4098300039768219 -0.7054849863052368
          -0.8690890073776245 0.08909600228071213 -0.4865660071372986 0.9991580247879028 -0.03419499844312668 0.022655999287962914
          0.9918789863586426 0.03477799892425537 0.12234199792146683 0.459293007850647 0.41059398651123047 0.787693977355957
          0.9489870071411133 0.20731599628925323 0.23757900297641754 0.05947199836373329 0.6048589944839478 0.7941089868545532
          -0.21291199326515198 0.7420889735221863 0.6355890035629272 -0.10016100108623505 -0.7964980006217957 -0.5962870121002197
          0.2922790050506592 -0.8645099997520447 -0.40889498591423035 0.09011799842119217 -0.8516640067100525 -0.5162820219993591
          0.25409799814224243 -0.8356329798698425 -0.48698198795318604 0.46872198581695557 -0.7940760254859924 -0.3869670033454895
          -0.8569939732551575 -0.2370309978723526 -0.4575769901275635 -0.8985329866409302 0.41886499524116516 -0.13111500442028046
          -0.6740570068359375 0.6153460144996643 0.4086509943008423 -0.030535999685525894 0.7842599749565125 0.6196799874305725
          -0.20491500198841095 0.7347949743270874 0.6465960144996643 -0.6861379742622375 -0.4701380133628845 -0.5551429986953735
          0.8454679846763611 -0.5313320159912109 -0.0535690002143383 0.9546399712562561 -0.2727780044078827 0.11939500272274017
          -0.14296600222587585 0.7140020132064819 0.6853920221328735 0.9285290241241455 -0.29318198561668396 0.22776800394058228
          0.43292200565338135 0.49264800548553467 0.7549009919166565 0.2692260146141052 -0.9203019738197327 -0.2838349938392639
          -0.4099540114402771 -0.755312979221344 -0.5113120079040527 -0.0006489999941550195 -0.8157380223274231 -0.5784209966659546
          0.3396109938621521 -0.7994409799575806 -0.49553999304771423 0.02748499996960163 -0.8357620239257812 -0.5484030246734619
          -0.09034299850463867 -0.8678979873657227 -0.4884589910507202 0.45748499035835266 -0.8608540296554565 -0.22279700636863708
          -0.8289160132408142 -0.3216629922389984 -0.4576359987258911 -0.9938870072364807 0.08622799813747406 -0.06893999874591827
          -0.9858270287513733 -0.13669399917125702 0.09726600348949432 -0.3742760121822357 0.6151340007781982 0.6939219832420349
          -0.1994830071926117 0.706978976726532 0.6785179972648621 -0.1306930035352707 0.8215810060501099 0.5549079775810242
          0.5849379897117615 -0.8088359832763672 -0.06026199832558632 0.8931940197944641 -0.4337019920349121 0.11877299845218658
          0.0857430025935173 0.7937719821929932 0.6021419763565063 -0.008423999883234501 0.8646789789199829 0.5022550225257874
          0.9461429715156555 -0.3031400144100189 0.11366000026464462 0.7538890242576599 -0.2628270089626312 0.6021400094032288
          0.3720499873161316 0.7367690205574036 0.5645800232887268 -0.33734700083732605 -0.8536220192909241 -0.39689600467681885
          -0.1655919998884201 -0.810854971408844 -0.5613330006599426 0.5014489889144897 -0.8375869989395142 -0.21678699553012848
          0.5730000138282776 -0.7522569894790649 -0.32523998618125916 0.3823400139808655 -0.7890499830245972 -0.4808489978313446
          0.10984999686479568 -0.8346379995346069 -0.5397340059280396 -0.28630900382995605 -0.75559002161026 -0.5891609787940979
          -0.07943200320005417 -0.8294199705123901 -0.5529500246047974 -0.19080999493598938 -0.7999230027198792 -0.5689589977264404
          -0.8838949799537659 -0.34677401185035706 -0.31380999088287354 -0.784820020198822 -0.5472189784049988 -0.29087600111961365
          -0.6299470067024231 -0.6796290278434753 -0.3758609890937805 -0.718737006187439 0.08063899725675583 0.6905890107154846
          -0.48791998624801636 0.5250179767608643 0.6973450183868408 -0.37006300687789917 0.8042849898338318 0.46494999527931213
          -0.1420239955186844 0.8921040296554565 0.4289279878139496 -0.16315999627113342 0.8791260123252869 0.4477910101413727
          -0.5298730134963989 -0.7135369777679443 -0.4583660066127777 0.5959230065345764 -0.7980039715766907 -0.0898049995303154
          0.7321770191192627 -0.6768980026245117 -0.07566700130701065 0.06939700245857239 0.8615059852600098 0.5029829740524292
          0.7362579703330994 -0.6766899824142456 0.0038769999518990517 0.8340780138969421 0.07472400367259979 0.5465620160102844
          0.49543899297714233 0.7334750294685364 0.46535399556159973 0.810479998588562 0.29034098982810974 0.5087479948997498
          -0.39942800998687744 -0.761389970779419 -0.5106300115585327 0.6654000282287598 -0.7117329835891724 -0.2251189947128296
          0.32224199175834656 -0.8266019821166992 -0.46140000224113464 0.5161319971084595 -0.7595289945602417 -0.3958820104598999
          -0.44330498576164246 -0.6941450238227844 -0.5671359896659851 -0.16983400285243988 -0.8091840147972107 -0.5624750256538391
          0.013849999755620956 -0.8377559781074524 -0.545868992805481 -0.5969719886779785 -0.6044039726257324 -0.5275610089302063
          -0.8342519998550415 -0.5015460252761841 -0.22907699644565582 -0.6561279892921448 -0.6979900002479553 -0.286888986825943
          -0.33356499671936035 0.8573539853096008 0.39201900362968445 -0.6947280168533325 0.6398580074310303 0.32853400707244873
          -0.13550099730491638 0.9177150130271912 0.373414009809494 0.5773919820785522 -0.7866349816322327 -0.2186879962682724
          0.7161350250244141 -0.6918910145759583 -0.09185700118541718 0.11245699971914291 0.8794299960136414 0.462554007768631
          0.5594710111618042 0.725458025932312 0.40087801218032837 0.5982739925384521 0.7376589775085449 0.312934011220932
          0.9231129884719849 0.13048000633716583 0.36171600222587585 0.8735650181770325 0.3822599947452545 0.30126500129699707
          -0.6827229857444763 -0.6047880053520203 -0.4100250005722046 -0.6074100136756897 -0.5822250247001648 -0.5404329895973206
          0.7279160022735596 -0.6372529864311218 -0.2530739903450012 0.2463580071926117 -0.8411399722099304 -0.4814459979534149
          -0.30240100622177124 -0.7415140271186829 -0.598924994468689 0.2861120104789734 -0.8315640091896057 -0.47606799006462097
          -0.8465129733085632 -0.5226879715919495 -0.1010579988360405 -0.9539290070533752 0.03900500014424324 0.29748499393463135
          -0.4265350103378296 0.8597469925880432 0.28089800477027893 -0.5831949710845947 0.7751500010490417 0.24295100569725037
          -0.1447789967060089 0.9309419989585876 0.3352389931678772 -0.19717200100421906 0.8957200050354004 0.39851000905036926
          -0.35325199365615845 0.9021980166435242 0.24749299883842468 0.1127220019698143 0.909267008304596 0.4006580114364624
          0.885388970375061 -0.45859500765800476 0.07600600272417068 0.2560810148715973 0.882652997970581 0.39414098858833313
          0.5755770206451416 0.7750279903411865 0.2608500123023987 0.857928991317749 0.4986079931259155 0.1238899976015091
          0.9496539831161499 -0.2755970060825348 0.14900699257850647 0.9773560166358948 -0.11834400147199631 0.17541499435901642
          -0.8704649806022644 -0.35154399275779724 -0.34453898668289185 0.8841149806976318 -0.45171499252319336 -0.11956000328063965
          0.45782798528671265 -0.7825689911842346 -0.4218769967556 -0.8754450082778931 -0.2703010141849518 -0.4006659984588623
          -0.6657170057296753 -0.49018698930740356 -0.5626170039176941 -0.021290000528097153 -0.8196439743041992 -0.5724779963493347
          0.10902699828147888 -0.8428210020065308 -0.5270349979400635 -0.47742998600006104 -0.6381829977035522 -0.6039729714393616
          0.25088900327682495 -0.8364999890327454 -0.4871560037136078 0.11593300104141235 -0.8370360136032104 -0.5347239971160889
          -0.9554780125617981 -0.16749699413776398 -0.24291199445724487 -0.9522010087966919 0.30506300926208496 0.01581599935889244
          -0.9230430126190186 0.37532898783683777 -0.08438000082969666 -0.544963002204895 0.8273100256919861 0.13628800213336945
          -0.8176310062408447 0.5547440052032471 -0.15407399833202362 -0.2962239980697632 0.9004089832305908 0.31861400604248047
          -0.05607299879193306 0.904017984867096 0.4238010048866272 0.04027999937534332 0.923222005367279 0.38214999437332153
          -0.5652779936790466 0.8225929737091064 0.06165900081396103 -0.5617750287055969 0.8263329863548279 0.039772000163793564
          0.9226869940757751 -0.38505199551582336 -0.01956699974834919 0.14044199883937836 0.8799200057983398 0.45389100909233093
          0.3331010043621063 0.8513519763946533 0.4052700102329254 0.9880729913711548 0.11141400039196014 0.10629399865865707
          0.9831979870796204 0.1824209988117218 0.006711000110954046 0.9915720224380493 -0.10336200147867203 0.07811299711465836
          0.7988259792327881 -0.5587999820709229 -0.22275400161743164 0.5561450123786926 -0.7470059990882874 -0.3642590045928955
          -0.9123979806900024 -0.0643789991736412 -0.4042089879512787 -0.09962999820709229 -0.7774980068206787 -0.6209440231323242
          -0.6285030245780945 -0.5145099759101868 -0.5833209753036499 -0.7392929792404175 -0.3810110092163086 -0.5552269816398621
          -0.5043569803237915 -0.5572260022163391 -0.6596390008926392 0.5491089820861816 -0.7570679783821106 -0.3540149927139282
          0.2736569941043854 -0.8092899918556213 -0.5197700262069702 -0.9782919883728027 0.11666399985551834 -0.17127099633216858
          -0.8104730248451233 0.5269669890403748 -0.25581100583076477 -0.340829998254776 0.8965269923210144 0.2829740047454834
          -0.20311999320983887 0.888746976852417 0.4109399914741516 -0.12460099905729294 0.8863469958305359 0.4459420144557953
          0.0009169999975711107 0.8848180174827576 0.46593499183654785 -0.6904299855232239 0.7156500220298767 -0.10560300201177597
          -0.4591439962387085 0.8750920295715332 0.1529739946126938 0.24517999589443207 0.8463619947433472 0.4728200137615204
          0.9921079874038696 -0.06498199701309204 -0.10723800212144852 0.8951529860496521 0.445046991109848 0.02517399936914444
          0.9780009984970093 -0.06271900236606598 -0.1989479959011078 0.8981109857559204 -0.3899030089378357 -0.20340099930763245
          0.7940679788589478 -0.5747990012168884 -0.1976429969072342 0.18727099895477295 -0.7700560092926025 -0.6098719835281372
          0.00684799998998642 -0.7631139755249023 -0.646228015422821 -0.21212400496006012 -0.6903489828109741 -0.6916800141334534
          -0.8054080009460449 -0.20566999912261963 -0.5558930039405823 -0.19001400470733643 -0.6570950150489807 -0.72946697473526
          -0.4025009870529175 -0.5400850176811218 -0.7391219735145569 -0.5350430011749268 -0.38343900442123413 -0.75279700756073
          0.6544950008392334 -0.6578940153121948 -0.37257400155067444 -0.8957309722900391 0.07974199950695038 -0.43738800287246704
          -0.8677989840507507 0.24555499851703644 -0.43200400471687317 -0.35717299580574036 0.8944029808044434 0.2692050039768219
          -0.18685300648212433 0.9062319993972778 0.3792479932308197 -0.2625350058078766 0.8955079913139343 0.35936200618743896
          -0.10707999765872955 0.860414981842041 0.49821600317955017 0.023617999628186226 0.8687919974327087 0.49461400508880615
          0.44564899802207947 0.7949900031089783 0.41156700253486633 0.30296799540519714 0.8164600133895874 0.49153101444244385
          0.11893899738788605 0.8254269957542419 0.5518360137939453 0.9474930167198181 -0.0668179988861084 -0.3127169907093048
          0.8630679845809937 0.4939559996128082 -0.10545600205659866 0.6335030198097229 0.7241960167884827 0.2724219858646393
          0.7707700133323669 -0.4184899926185608 -0.48039498925209045 0.7130140066146851 -0.5792220234870911 -0.39511001110076904
          0.15880200266838074 -0.722885012626648 -0.6724730134010315 -0.0038799999747425318 -0.7242649793624878 -0.6895110011100769
          -0.7335140109062195 -0.15268400311470032 -0.6623020172119141 0.08421800285577774 -0.6778929829597473 -0.7303209900856018
          -0.09630200266838074 -0.5559080243110657 -0.8256469964981079 -0.3057610094547272 -0.47326698899269104 -0.8261529803276062
          -0.3820750117301941 -0.38290300965309143 -0.8410729765892029 0.4165300130844116 -0.7262089848518372 -0.5469220280647278
          0.5911039710044861 -0.6550469994544983 -0.47064799070358276 0.3788270056247711 -0.6672750115394592 -0.6412749886512756
          -0.7889379858970642 0.31314700841903687 -0.5286920070648193 -0.7183480262756348 0.6158440113067627 -0.32359299063682556
          -0.36433500051498413 0.8823170065879822 0.2979530096054077 -0.5380759835243225 0.8279600143432617 0.1579750031232834
          -0.21551799774169922 0.8160300254821777 0.5363270044326782 -0.33197298645973206 0.8373759984970093 0.4342760145664215
          -0.12484700232744217 0.7941290140151978 0.5947870016098022 0.5248339772224426 0.7619479894638062 0.37945300340652466
          0.2744559943675995 0.8290500044822693 0.487185001373291 0.851265013217926 0.01923000067472458 -0.524383008480072
          0.8863229751586914 0.3924410045146942 -0.2458070069551468 0.5890899896621704 -0.5818549990653992 -0.5607290267944336
          0.7163959741592407 -0.1948380023241043 -0.6699360013008118 0.6012769937515259 -0.4387989938259125 -0.6677740216255188
          0.19548100233078003 -0.6527770161628723 -0.7318950295448303 -0.7145400047302246 0.16127699613571167 -0.6807510256767273
          0.08081000298261642 -0.5652199983596802 -0.8209720253944397 -0.13673900067806244 -0.3465319871902466 -0.9280179738998413
          -0.17612899839878082 -0.33488601446151733 -0.9256510138511658 -0.19984599947929382 -0.25755900144577026 -0.9453700184822083
          -0.5113009810447693 -0.10192699730396271 -0.853335976600647 -0.6188009977340698 0.27248498797416687 -0.7367749810218811
          -0.5710579752922058 0.8136619925498962 -0.10884600132703781 -0.46663698554039 0.8654029965400696 0.18255600333213806
          -0.1228180006146431 0.8886560201644897 0.44182300567626953 -0.5317310094833374 0.8336459994316101 0.14931699633598328
          -0.494143009185791 0.7850080132484436 0.3736110031604767 -0.027907999232411385 0.7306389808654785 0.6821939945220947
          -0.21855099499225616 0.7031930088996887 0.6765760183334351 -0.2017029970884323 0.7082629799842834 0.6765199899673462
          -0.16652800142765045 0.6483399868011475 0.7429159879684448 -0.29681000113487244 0.6438779830932617 0.7052130103111267
          0.7269489765167236 0.6522219777107239 0.21482700109481812 0.5601930022239685 0.6121360063552856 0.5580980181694031
          0.6934710144996643 0.6061519980430603 0.3894590139389038 0.3025650084018707 0.7771160006523132 0.5518559813499451
          0.1107959970831871 0.6480090022087097 0.7535309791564941 0.8792660236358643 -0.1269810050725937 -0.45909398794174194
          0.6279399991035461 -0.40466299653053284 -0.6647850275039673 0.6139559745788574 -0.42765700817108154 -0.6634510159492493
          0.32631099224090576 -0.6013410091400146 -0.7293210029602051 0.22123299539089203 -0.6136059761047363 -0.7579860091209412
          -0.002597999991849065 -0.4735479950904846 -0.8807640075683594 0.07277700304985046 -0.509564995765686 -0.8573489785194397
          0.2262440025806427 -0.5087680220603943 -0.8306440114974976 -0.08006999641656876 -0.427715003490448 -0.9003599882125854
          -0.18308700621128082 -0.3939490020275116 -0.9007130265235901 -0.419514000415802 -0.037689998745918274 -0.906965970993042
          -0.3276500105857849 -0.2723740041255951 -0.9046869874000549 -0.3907029926776886 -0.0033050000201910734 -0.92051100730896
          0.4923290014266968 -0.4864630103111267 -0.721780002117157 -0.6433939933776855 0.6154130101203918 -0.4553140103816986
          -0.45119601488113403 0.6443700194358826 0.6174219846725464 -0.5634269714355469 0.7344670295715332 0.3782980144023895
          -0.2675890028476715 0.6416820287704468 0.7187770009040833 -0.03589100018143654 0.518563985824585 0.8542850017547607
          -0.3532240092754364 0.5755980014801025 0.73750901222229 -0.32549700140953064 0.6038029789924622 0.727649986743927
          0.8247630000114441 0.3949419856071472 0.40470701456069946 0.8037130236625671 0.0694269984960556 0.5909519791603088
          0.4916140139102936 0.36629799008369446 0.7900260090827942 0.3012070059776306 0.576000988483429 0.7599319815635681
          0.9287559986114502 0.3578979969024658 0.09654700011014938 0.7275239825248718 -0.5240849852561951 -0.44276800751686096
          0.46839800477027893 -0.552291989326477 -0.6896209716796875 0.726760983467102 -0.5573930144309998 -0.4014120101928711
          0.38807201385498047 -0.5045329928398132 -0.771261990070343 0.04821399971842766 -0.6611319780349731 -0.7487189769744873
          -0.16972500085830688 -0.6558499932289124 -0.7355639934539795 0.11842100322246552 -0.5711159706115723 -0.8122820258140564
          0.30720600485801697 -0.6147239804267883 -0.7264569997787476 0.3291099965572357 -0.471235990524292 -0.8183050155639648
          0.17816400527954102 -0.5808249711990356 -0.7942919731140137 -0.7157390117645264 0.004505000077188015 -0.6983529925346375
          -0.5468459725379944 0.20100699365139008 -0.812745988368988 -0.691178023815155 0.7114539742469788 -0.12690900266170502
          -0.6700440049171448 0.7352160215377808 0.10245800018310547 -0.5243430137634277 0.617447018623352 0.5863649845123291
          -0.730139970779419 0.6322219967842102 0.2592119872570038 -0.6984620094299316 0.4365519881248474 0.5670750141143799
          0.11734700202941895 0.5066419839859009 0.8541330099105835 -0.25801700353622437 0.6426470279693604 0.7214099764823914
          -0.05722799897193909 0.45627400279045105 0.8879979848861694 0.16268999874591827 -0.1949629932641983 0.9672240018844604
          0.26126301288604736 0.27286800742149353 0.9258970022201538 -0.1941940039396286 0.593080997467041 0.7813730239868164
          -0.46047601103782654 0.3077000081539154 0.8326359987258911 0.4941850006580353 0.08781900256872177 0.8649100065231323
          0.3933529853820801 0.06141199916601181 0.9173340201377869 0.9883379936218262 -0.04351099953055382 0.14592799544334412
          0.9129340052604675 -0.4013499915599823 0.07396099716424942 0.7165619730949402 -0.5532609820365906 -0.42478400468826294
          0.5957859754562378 -0.7726370096206665 -0.21925100684165955 0.4417850077152252 -0.8114399909973145 -0.3826099932193756
          0.7231699824333191 -0.6896139979362488 0.03817899897694588 0.20384100079536438 -0.7453590035438538 -0.6347339749336243
          -0.48016899824142456 -0.5244020223617554 -0.7031639814376831 -0.329710990190506 -0.5715680122375488 -0.7513989806175232
          -0.7035160064697266 0.36601200699806213 -0.6091799736022949 -0.7587540149688721 -0.3142330050468445 -0.5705699920654297
          -0.5240700244903564 -0.5221390128135681 -0.6728460192680359 -0.8386949896812439 0.5276920199394226 -0.13465699553489685
          -0.6224420070648193 0.35163798928260803 0.6992260217666626 -0.5798969864845276 0.40796101093292236 0.7051860094070435
          -0.5477460026741028 0.1729319989681244 0.818576991558075 -0.963932991027832 0.2636750042438507 0.03617100045084953
          -0.33218899369239807 0.4968099892139435 0.8017669916152954 0.006839999929070473 0.021810000762343407 0.9997389912605286
          0.29430100321769714 -0.28185001015663147 0.9132069945335388 -0.15948599576950073 0.1091260015964508 0.9811499714851379
          0.5265370011329651 -0.3233250081539154 0.7862690091133118 0.7722780108451843 -0.6275629997253418 0.09875299781560898
          0.49591100215911865 -0.8068529963493347 0.32103198766708374 0.3288640081882477 -0.8607239723205566 -0.3885909914970398
          -0.196152001619339 -0.8834369778633118 -0.42551499605178833 -0.541828989982605 -0.792618989944458 -0.27960100769996643
          0.022474000230431557 -0.9185659885406494 -0.39462798833847046 -0.6121399998664856 -0.6266090273857117 -0.4823339879512787
          -0.7496960163116455 -0.6163709759712219 -0.24092300236225128 -0.7875339984893799 -0.5750859975814819 -0.22150999307632446
          -0.9054309725761414 0.09598200023174286 -0.41349899768829346 -0.7155870199203491 0.09546300023794174 0.6919699907302856
          -0.711080014705658 -0.2206670045852661 0.6675869822502136 -0.9449250102043152 -0.09096699953079224 0.31439098715782166
          0.27674299478530884 -0.28739500045776367 0.9169610142707825 -0.48708099126815796 -0.5612059831619263 0.6691780090332031
          -0.43975600600242615 -0.3142940104007721 0.8413280248641968 0.8359259963035583 -0.33926600217819214 0.43142399191856384
          0.7647039890289307 -0.5209640264511108 0.3792420029640198 0.4018790125846863 -0.8279169797897339 0.39121198654174805
          0.4219219982624054 -0.8596600294113159 0.28804001212120056 0.23883000016212463 -0.9243850111961365 -0.29744499921798706
          0.33820098638534546 -0.6456320285797119 0.6846740245819092 -0.11700800061225891 -0.9830269813537598 -0.14130499958992004
          0.11119700223207474 -0.9934890270233154 -0.0247809998691082 -0.014863000251352787 -0.9893289804458618 -0.14493800699710846
          -0.6156150102615356 -0.7207220196723938 -0.3187119960784912 -0.7988629937171936 -0.5987840294837952 0.05722799897193909
          -0.932561993598938 -0.29144999384880066 -0.21303999423980713 -0.7094529867172241 -0.10879500210285187 0.696304976940155
          -0.7809079885482788 -0.32635700702667236 0.5326099991798401 -0.4732770025730133 -0.7321190237998962 0.48990899324417114
          -0.10190200060606003 -0.8210279941558838 0.5617200136184692 0.039021000266075134 -0.8169479966163635 0.5753899812698364
          0.1308089941740036 -0.8252109885215759 0.549468994140625 0.15356099605560303 -0.6672149896621704 0.7288640141487122
          0.07500000298023224 -0.9198359847068787 0.38506799936294556 0.12523199617862701 -0.6389889717102051 0.7589529752731323
          0.5525959730148315 -0.5899850130081177 0.5886899828910828 0.5569509863853455 -0.6031849980354309 0.5709409713745117
          0.3394719958305359 -0.8164399862289429 0.4671019911766052 -0.4463239908218384 -0.8846650123596191 0.13476499915122986
          -0.6850429773330688 -0.5131819844245911 0.5170689821243286 -0.726954996585846 -0.678820013999939 -0.1036280021071434
          -0.712926983833313 -0.6308050155639648 0.306302011013031 -0.6181640028953552 -0.65413898229599 0.4358620047569275
          -0.8714990019798279 -0.4884600043296814 -0.043549999594688416 -0.7644180059432983 -0.5995200276374817 0.23715199530124664
          -0.8958740234375 -0.4362510144710541 0.08423300087451935 -0.01039899978786707 -0.7657110095024109 0.6431009769439697
          0.2199620008468628 -0.6328669786453247 0.7423589825630188 0.060210999101400375 -0.5043349862098694 0.8614069819450378
          -0.05774800106883049 -0.6126530170440674 0.7882390022277832 -0.16863000392913818 -0.7232890129089355 0.6696400046348572
          0.053902000188827515 -0.5294299721717834 0.8466389775276184 -0.6120759844779968 -0.5311999917030334 0.5858240127563477
          -0.41118600964546204 -0.7291880249977112 0.5470020174980164 -0.2439890056848526 -0.9036179780960083 0.35205599665641785
          -0.11585400253534317 -0.9682589769363403 0.22147899866104126 -0.04028800129890442 -0.9272300004959106 0.37231799960136414
          0.014775999821722507 -0.8049619793891907 0.5931429862976074 0.03476399928331375 -0.2544719874858856 0.9664549827575684
          0.06571199744939804 -0.22789399325847626 0.9714660048484802 -0.11967399716377258 -0.4638479948043823 0.8777949810028076
          -0.4501020014286041 -0.1495009958744049 0.8803730010986328 -0.4837160110473633 -0.41684800386428833 0.7695819735527039
          -0.3725610077381134 -0.2741760015487671 0.8865810036659241 -0.35035601258277893 -0.5448160171508789 0.7618569731712341
          -0.268561989068985 -0.7369099855422974 0.6203539967536926 -0.0867139995098114 -0.7619929909706116 0.6417530179023743
          -0.029176000505685806 -0.8011419773101807 0.5977630019187927 -0.16225600242614746 -0.6260870099067688 0.7626850008964539
          -0.1419380009174347 -0.04093300178647041 0.9890289902687073 -0.4088529944419861 -0.16537000238895416 0.897491991519928
          -0.32622501254081726 -0.4412339925765991 0.8359959721565247 -0.10546600073575974 0.0805639997124672 0.9911540150642395
          -0.23834800720214844 -0.6952329874038696 0.6781160235404968 -0.09147399663925171 -0.02227099984884262 0.9955580234527588
          -0.2574459910392761 -0.2554369866847992 0.9319189786911011 -0.11259700357913971 0.08167900145053864 0.9902780055999756
          <InformationKey name="L2_NORM_RANGE" location="vtkDataArray" length="2">
            <Value index="0">
              0.99999920835
            </Value>
            <Value index="1">
              1.0000007153
            </Value>
          </InformationKey>
        </DataArray>
      </PointData>
      <CellData>
      </CellData>
      <Points>
        <DataArray type="Float32" Name="Points" NumberOfComponents="3" format="ascii" RangeMin="0.0941047252164817" RangeMax="0.09933845700120152">
          0.02397100068628788 -0.07075999677181244 -0.06376499682664871 0.02355699986219406 -0.07088900357484818 -0.06405699998140335