<?xml version="1.0"?>
<VTKFile type="PolyData" version="0.1" byte_order="LittleEndian" header_type="UInt32" compressor="vtkZLibDataCompressor">
  <PolyData>
    <Piece NumberOfPoints="1130" NumberOfVerts="0" NumberOfLines="0" NumberOfStrips="0" NumberOfPolys="2292">
      <PointData Normals="Normals">
        <DataArray type="Float32" Name="Normals" NumberOfComponents="3" format="ascii" RangeMin="0.9999991720412355" RangeMax="1.000000737970646">
          -0.45821401476860046 -0.8728219866752625 0.16799500584602356 -0.545956015586853 -0.825963020324707 -0.14042000472545624
          -0.5736820101737976 -0.7889819741249084 0.219991996884346 -0.6415640115737915 -0.7669640183448792 0.01271700020879507
          -0.025164000689983368 -0.9521080255508423 0.3047240078449249 -0.0788239985704422 -0.9948040246963501 0.06443899869918823
          -0.14422599971294403 -0.9222130179405212 0.3587779998779297 -0.13251900672912598 -0.870980978012085 0.4731079936027527
          -0.46164700388908386 -0.8123760223388672 0.3562690019607544 -0.6449199914932251 -0.7097489833831787 -0.2834329903125763
          -0.6831099987030029 -0.722877025604248 0.10397599637508392 -0.6768370270729065 -0.7065269947052002 -0.20666800439357758
          -0.13981600105762482 -0.9582139849662781 0.24955600500106812 0.3529079854488373 -0.784591019153595 0.5097770094871521
          -0.4277389943599701 -0.7131839990615845 -0.5553449988365173 -0.5883780121803284 -0.6695929765701294 -0.4532729983329773
          -0.7092239856719971 -0.6711570024490356 0.21575500071048737 -0.6526610255241394 -0.7022259831428528 0.2844510078430176
          -0.3187510073184967 -0.816195011138916 0.48189499974250793 -0.5942639708518982 -0.7326189875602722 -0.33184200525283813
          -0.6127840280532837 -0.7869679927825928 -0.07194499671459198 -0.6447420120239258 -0.7336249947547913 0.214711993932724
          0.5000020265579224 -0.6948410272598267 0.5169079899787903 0.36138400435447693 -0.8093069791793823 0.4630590081214905
          0.4672839939594269 -0.7249169945716858 0.506102979183197 -0.37131500244140625 -0.5785790085792542 -0.726203978061676
          -0.3456529974937439 -0.5995609760284424 -0.7218379974365234 -0.40696901082992554 -0.7339140176773071 -0.5438249707221985
          0.3294390141963959 -0.9173650145530701 0.22340799868106842 0.23899300396442413 -0.8012610077857971 0.5485100150108337
          -0.6414780020713806 -0.6891859769821167 0.3369399905204773 -0.6267390251159668 -0.725570023059845 0.28415900468826294
          -0.5491960048675537 -0.7380220293998718 0.3920559883117676 0.08980300277471542 -0.8188999891281128 0.5668669939041138
          -0.18288500607013702 -0.8082000017166138 0.5597910284996033 -0.44761601090431213 -0.767920970916748 0.4581890106201172
          -0.4624280035495758 -0.8830980062484741 -0.07935900241136551 -0.3826949894428253 -0.8332930207252502 -0.3989579975605011
          -0.5752300024032593 -0.8068829774856567 0.13435199856758118 -0.6143869757652283 -0.7178549766540527 0.3274340033531189
          0.48337599635124207 -0.7369660139083862 0.4724709987640381 0.5532900094985962 -0.7058579921722412 0.4423069953918457
          0.3790090084075928 -0.7526450157165527 0.5384029746055603 -0.12959100306034088 -0.49573299288749695 -0.8587520122528076
          0.012052999809384346 -0.8651760220527649 -0.5013239979743958 -0.013221999630331993 -0.947098970413208 -0.3206680119037628
          -0.19919300079345703 -0.5609970092773438 -0.8034949898719788 -0.19724300503730774 -0.6734529733657837 -0.7124300003051758
          -0.48664700984954834 -0.771934986114502 0.40901198983192444 -0.5449740290641785 -0.7771639823913574 0.3146739900112152
          -0.6932389736175537 -0.6964229941368103 0.1855120062828064 -0.06188800185918808 -0.7941840291023254 0.6045179963111877
          -0.24638999998569489 -0.7863039970397949 0.5665850043296814 -0.46583300828933716 -0.7413420081138611 0.4831260144710541
          -0.36476200819015503 -0.8655530214309692 -0.34317299723625183 -0.27191901206970215 -0.7554299831390381 -0.5961419939994812
          -0.8076099753379822 -0.5811169743537903 0.10034800320863724 -0.6460689902305603 -0.7010149955749512 0.3019469976425171
          -0.47672900557518005 -0.8788340091705322 -0.019509000703692436 -0.6292440295219421 -0.7221900224685669 0.28721800446510315
          -0.6861050128936768 -0.6930180191993713 0.221328005194664 0.5850440263748169 -0.768248975276947 0.2598400115966797
          0.7059659957885742 -0.7043390274047852 0.07428599894046783 0.855122983455658 -0.45265498757362366 0.25272199511528015
          0.6186710000038147 -0.655426025390625 0.43320098519325256 0.8419780135154724 -0.538906991481781 0.025544000789523125
          0.5848640203475952 -0.6619560122489929 0.4687730073928833 0.4708159863948822 -0.7225419878959656 0.5062260031700134
          0.5116919875144958 -0.6854220032691956 0.5180420279502869 0.515595018863678 -0.6901140213012695 0.5078420042991638
          0.12615999579429626 -0.7769569754600525 0.6167839765548706 0.2539219856262207 -0.7743269801139832 0.579604983329773
          -0.07351700216531754 -0.32554900646209717 -0.9426630139350891 0.3715499937534332 -0.38227999210357666 -0.8460569977760315
          0.3519290089607239 -0.710502028465271 -0.6093710064888 -0.004089999943971634 -0.3903459906578064 -0.9206590056419373
          -0.052508000284433365 -0.5793430209159851 -0.8133909702301025 0.4659689962863922 -0.884099006652832 -0.03523699939250946
          -0.3502579927444458 -0.8036149740219116 0.4811669886112213 -0.6186370253562927 -0.7402070164680481 0.2634049952030182
          -0.4202499985694885 -0.8107159733772278 0.40758898854255676 -0.8042510151863098 -0.5770900249481201 0.14194099605083466
          -0.7463430166244507 -0.6424180269241333 0.1739870011806488 -0.200437992811203 -0.7876150012016296 0.5826550126075745
          -0.01926800049841404 -0.7449449896812439 0.6668480038642883 0.003364000003784895 -0.7611920237541199 0.6485180258750916
          -0.6705060005187988 -0.7104039788246155 -0.2138890027999878 -0.48835501074790955 -0.6526970267295837 -0.5792199969291687
          -0.5043669939041138 -0.7532690167427063 -0.42213699221611023 -0.22345300018787384 -0.6772710084915161 -0.700980007648468
          -0.6682850122451782 -0.6861940026283264 0.28728699684143066 -0.7006109952926636 -0.6421610116958618 0.3110859990119934
          -0.8551729917526245 -0.5120559930801392 0.08048100024461746 -0.7899720072746277 -0.5712760090827942 0.22268199920654297
          0.6946269869804382 -0.6312649846076965 -0.3449620008468628 0.5591809749603271 -0.8129220008850098 -0.16270899772644043
          0.9712849855422974 -0.21574699878692627 -0.1002969965338707 0.8642529845237732 -0.3866739869117737 0.32179099321365356
          0.7881230115890503 -0.5641329884529114 -0.24620099365711212 0.5356789827346802 -0.6572420001029968 0.5301709771156311
          0.47983598709106445 -0.7009270191192627 0.5276920199394226 0.5535629987716675 -0.6033719778060913 0.5740290284156799
          0.5867900252342224 -0.5486590266227722 0.5955259799957275 0.47166600823402405 -0.6990699768066406 0.5374320149421692
          0.201106995344162 -0.7105200290679932 0.67432701587677 0.34003201127052307 -0.7246620059013367 0.5993689894676208
          -0.006147999782115221 -0.08759699761867523 -0.9961370229721069 0.11772099882364273 -0.08058299869298935 -0.9897720217704773
          0.3811599910259247 -0.010502999648451805 -0.9244490265846252 0.1673469990491867 -0.07931400090456009 -0.9827029705047607
          0.2248629927635193 -0.35741499066352844 -0.9064720273017883 -0.2142380028963089 -0.35571199655532837 -0.9097089767456055
          -0.17871099710464478 -0.8238580226898193 0.5378850102424622 -0.691402018070221 -0.7016299962997437 0.17227600514888763
          -0.7518690228462219 -0.6457250118255615 0.13315899670124054 -0.4755829870700836 -0.8000069856643677 0.36579999327659607
          -0.8635200262069702 -0.498539000749588 0.07610300183296204 -0.9650459885597229 -0.2618570029735565 0.010855999775230885
          0.11138500273227692 -0.7530810236930847 0.6484310030937195 -0.7205939888954163 -0.5177019834518433 -0.4612259864807129
          -0.5087100267410278 -0.4905509948730469 -0.7075120210647583 -0.9233409762382507 -0.21928800642490387 -0.315203994512558
          -0.9210609793663025 -0.3718479871749878 -0.1156580001115799 -0.8613190054893494 -0.3434149920940399 -0.374426007270813
          -0.9291729927062988 -0.32996100187301636 -0.16662299633026123 -0.885125994682312 -0.46375900506973267 0.038458000868558884
          0.9805729985237122 -0.1302099972963333 0.1467059999704361 0.9969379901885986 0.02947700023651123 -0.07243099808692932
          0.9506300091743469 -0.24159100651741028 -0.19477500021457672 0.8406460285186768 -0.38253599405288696 0.3833810091018677
          0.8296689987182617 -0.3299430012702942 -0.45031899213790894 0.7092840075492859 -0.4900439977645874 0.5067279934883118
          0.5133569836616516 -0.6115710139274597 0.6020349860191345 0.6429499983787537 -0.34704598784446716 0.6827700138092041
          0.7039290070533752 -0.27419498562812805 0.655210018157959 0.4274739921092987 -0.5857700109481812 0.6885780096054077
          0.3932740092277527 -0.5749589800834656 0.7174670100212097 0.23897500336170197 -0.6843699812889099 0.6888599991798401
          0.21792100369930267 0.1797180026769638 -0.9592769742012024 0.7109400033950806 -0.37882399559020996 -0.5924999713897705
          0.6160849928855896 -0.1677519977092743 -0.7696099877357483 0.5513420104980469 0.11355199664831161 -0.8265159726142883
          0.21466700732707977 -0.20500600337982178 -0.9549300074577332 0.16521799564361572 -0.4131369888782501 -0.8955559730529785
          -0.5691699981689453 -0.1437940001487732 -0.8095489740371704 0.40501800179481506 -0.27861300110816956 -0.8708249926567078
          0.49276599287986755 -0.07378900051116943 -0.8670269846916199 -0.05310999974608421 -0.8240110278129578 0.5640789866447449
          -0.3321070075035095 -0.8204789757728577 0.4653159976005554 0.3385689854621887 -0.7292199730873108 0.5946499705314636
          0.09354399889707565 -0.8093519806861877 0.5798259973526001 -0.5023850202560425 -0.7917349934577942 0.34751299023628235
          -0.563431978225708 -0.7711459994316101 0.2964420020580292 -0.6865429878234863 -0.7027599811553955 0.18651199340820312
          -0.809203028678894 -0.5798839926719666 0.09447299689054489 -0.8430119752883911 -0.5372599959373474 0.026112999767065048
          -0.865863025188446 -0.5001009702682495 -0.013442999683320522 -0.9480469822883606 -0.29986101388931274 -0.10626000165939331
          -0.9765220284461975 -0.20739099383354187 -0.05824999883770943 -0.979013979434967 0.01001800037920475 -0.2035450041294098
          -0.9623910188674927 0.03479500114917755 -0.2694289982318878 0.4031809866428375 -0.6562420129776001 0.637802004814148
          -0.6646999716758728 -0.39105600118637085 -0.6365929841995239 -0.7809759974479675 -0.31457799673080444 -0.5395529866218567
          -0.8750460147857666 -0.0167239997535944 -0.48374998569488525 -0.9680780172348022 -0.10997900366783142 -0.22523300349712372
          -0.943248987197876 -0.15650099515914917 -0.29289600253105164 0.9870989918708801 0.09488199651241302 0.12896700203418732
          0.8778939843177795 0.3788610100746155 -0.2928589880466461 0.8517640233039856 0.23751300573349 -0.4669960141181946
          0.8093879818916321 0.04538499936461449 -0.5855169892311096 0.9569100141525269 0.1244100034236908 0.26238301396369934
          0.8180699944496155 -0.1144300028681755 0.5636199712753296 0.6604610085487366 -0.32304298877716064 0.6778159737586975
          0.7338230013847351 0.05857500061392784 0.6768100261688232 0.6678850054740906 -0.2610880136489868 0.6969670057296753
          0.5542939901351929 -0.4605729877948761 0.693274974822998 0.3519879877567291 0.34568101167678833 -0.8698329925537109
          0.5202839970588684 0.2763729989528656 -0.8080360293388367 0.2936600148677826 0.16572700440883636 -0.9414340257644653
          0.1983640044927597 0.254269003868103 -0.9465720057487488 -0.10781800001859665 0.10406199842691422 -0.9887099862098694
          -0.5078080296516418 0.08490300178527832 -0.8572760224342346 0.42778199911117554 0.038162000477313995 -0.9030759930610657
          -0.7343639731407166 -0.08438999950885773 -0.673488974571228 0.6326959729194641 0.09335699677467346 -0.7687519788742065
          0.7273380160331726 0.15490099787712097 -0.6685699820518494 -0.2191309928894043 -0.8250920176506042 0.5207729935646057
          0.16418400406837463 -0.7636709809303284 0.6243799924850464 -0.0430929996073246 -0.8060950040817261 0.5902150273323059
          -0.3866649866104126 -0.8135330080986023 0.43434399366378784 -0.5842869877815247 -0.7526140213012695 0.3036139905452728
          0.4767810106277466 -0.6620870232582092 0.5782039761543274 -0.7840780019760132 -0.6044170260429382 0.14107400178909302
          -0.9144930243492126 -0.40313899517059326 -0.03437500074505806 -0.89267897605896 -0.44973400235176086 0.029386000707745552
          -0.9643530249595642 -0.09370099753141403 -0.2474759966135025 -0.9668110013008118 -0.1618950068950653 -0.19765500724315643
          -0.9571700096130371 0.013973000459372997 -0.28918999433517456 -0.9472489953041077 -0.2961980104446411 -0.12241899967193604
          -0.9547839760780334 0.03993599861860275 -0.29460400342941284 -0.8914729952812195 0.2153010070323944 -0.39864999055862427
          0.8225190043449402 -0.23052500188350677 0.519923985004425 -0.8594599962234497 0.15023499727249146 -0.488629013299942
          -0.7531859874725342 0.13196800649166107 -0.6444349884986877 -0.8575720191001892 0.18785099685192108 -0.47883400321006775
          -0.877921998500824 0.15137800574302673 -0.4542439877986908 0.8574619889259338 0.46878498792648315 -0.21212899684906006
          0.8748239874839783 0.4801889955997467 -0.06403999775648117 0.9035490155220032 0.41514700651168823 0.1060749962925911
          0.7346720099449158 0.15393699705600739 0.6607270240783691 0.8313369750976562 0.20217199623584747 0.5176929831504822
          0.8555369973182678 -0.013176999986171722 0.5175740122795105 0.29007598757743835 0.3788290023803711 -0.8788310289382935
          0.38988399505615234 0.4452109932899475 -0.8060879707336426 0.6780449748039246 0.3131909966468811 -0.6649559736251831
          0.5007280111312866 0.4758799970149994 -0.7230550050735474 0.6786419749259949 0.41531801223754883 -0.6057680249214172
          0.5148320198059082 0.310155987739563 -0.799219012260437 -0.47411400079727173 0.1567389965057373 -0.8664000034332275
          0.43598300218582153 0.256848007440567 -0.8625239729881287 -0.2137800008058548 -0.8113849759101868 0.5440160036087036
          -0.413442999124527 -0.7986199855804443 0.4373460114002228 -0.32659199833869934 -0.8114759922027588 0.484607994556427
          0.2237890064716339 -0.7304990291595459 0.645205020904541 0.32736000418663025 -0.7048739790916443 0.6292759776115417
          0.5771639943122864 -0.6013969779014587 0.552452027797699 0.06340699642896652 -0.7764490246772766 0.6269819736480713
          -0.12202200293540955 -0.8068159818649292 0.5780640244483948 -0.5478389859199524 -0.7561550140380859 0.35791298747062683
          -0.7090659737586975 -0.6613479852676392 0.24462999403476715 0.7276210188865662 -0.46049100160598755 0.5084440112113953
          -0.8780819773674011 -0.47542300820350647 0.054269999265670776 -0.8200960159301758 -0.555903971195221 0.13569599390029907
          -0.9245960116386414 -0.3807840049266815 -0.011238000355660915 -0.9236350059509277 -0.3832460045814514 0.004561999812722206
          -0.965703010559082 0.005063999909907579 -0.25960099697113037 -0.9590700268745422 -0.2285729944705963 -0.16715100407600403
          -0.9602159857749939 -0.07813400030136108 -0.2681039869785309 -0.9138320088386536 0.06958899646997452 -0.400085985660553
          -0.7860310077667236 0.2993130087852478 -0.5408949851989746 -0.9529619812965393 -0.291144996881485 -0.08424799889326096
          -0.8859189748764038 0.18479900062084198 -0.4254379868507385 -0.8342289924621582 0.30078500509262085 -0.46215900778770447
          -0.8351899981498718 0.32138100266456604 -0.44628599286079407 -0.6869630217552185 0.46999698877334595 -0.5542420148849487
          0.8562260270118713 -0.19773900508880615 0.4772599935531616 -0.7886250019073486 0.252126008272171 -0.5608050227165222
          -0.8605260252952576 0.22672399878501892 -0.4561690092086792 -0.8812199831008911 0.1367270052433014 -0.45250099897384644
          0.6036679744720459 0.5892090201377869 -0.5370450019836426 0.8251940011978149 0.5473819971084595 0.139382004737854
          0.6869099736213684 0.725009024143219 0.05017299950122833 0.8022410273551941 0.5955060124397278 -0.04221599921584129
          0.8813779950141907 0.4128269851207733 0.22966599464416504 0.803970992565155 0.489980012178421 0.33697301149368286
          0.6662960052490234 0.7091519832611084 0.23054799437522888 0.6620830297470093 0.6189829707145691 0.42250099778175354
          0.37946900725364685 0.48600199818611145 -0.7872769832611084 0.38016000390052795 0.5945029854774475 -0.7085520029067993
          -0.055969998240470886 0.3655160069465637 -0.9291210174560547 -0.4833729863166809 0.3233650028705597 -0.8135020136833191
          -0.7634779810905457 0.1488099992275238 -0.6284559965133667 0.6917330026626587 0.24379000067710876 -0.6797590255737305
          0.7909640073776245 0.2836189866065979 -0.5421580076217651 0.7968990206718445 0.3589949905872345 -0.4858750104904175
          -0.28298598527908325 -0.8094320297241211 0.5145279765129089 -0.41049501299858093 -0.791031002998352 0.45361199975013733
          0.47288399934768677 -0.6317229866981506 0.6142529845237732 0.1564289927482605 -0.7454130053520203 0.6479880213737488
          0.2546220123767853 -0.7244619727134705 0.6405640244483948 0.6597309708595276 -0.5395659804344177 0.5230910181999207
          0.05126500129699707 -0.782787024974823 0.620173990726471 -0.1703599989414215 -0.8254910111427307 0.5380910038948059
          -0.2560099959373474 -0.8168020248413086 0.5170040130615234 0.0032770000398159027 -0.8081579804420471 0.5889570116996765
          -0.6336460113525391 -0.7078379988670349 0.3121820092201233 -0.48780399560928345 -0.7645019888877869 0.421407014131546
          -0.7578439712524414 -0.6169480085372925 0.2122430056333542 0.6054239869117737 -0.5831509828567505 0.5416619777679443
          -0.8893100023269653 -0.45212000608444214 0.06866700202226639 -0.9545279741287231 -0.2867499887943268 -0.08154699951410294
          -0.9484230279922485 0.0820470005273819 -0.30620500445365906 -0.9648249745368958 -0.14006799459457397 -0.22247299551963806
          -0.7783750295639038 0.2500019967556 -0.5758739709854126 -0.9275760054588318 -0.011055000126361847 -0.3734709918498993
          -0.5435889959335327 0.5306620001792908 -0.6503139734268188 -0.9689990282058716 -0.21408599615097046 -0.12332099676132202
          -0.7739419937133789 0.4203149974346161 -0.4736559987068176 -0.6870359778404236 0.5326859951019287 -0.49419400095939636
          0.8580039739608765 0.46127501130104065 0.22595199942588806 0.9160950183868408 0.31942498683929443 0.24235899746418
          -0.7593929767608643 0.43244901299476624 -0.48611700534820557 -0.8205360174179077 0.25955599546432495 -0.5092650055885315
          -0.7106819748878479 0.47318699955940247 -0.5206009745597839 -0.6587790250778198 0.4849089980125427 -0.5752159953117371
          0.6014429926872253 0.6600649952888489 -0.4500899910926819 0.696357011795044 0.6571490168571472 -0.2885180115699768
          0.6736199855804443 0.7157080173492432 -0.1843850016593933 0.42684298753738403 0.7086660265922546 -0.5617809891700745
          0.5600590109825134 0.8170250058174133 0.13712899386882782 0.6479189991950989 0.7452579736709595 0.15745100378990173
          0.42682400345802307 0.5234540104866028 -0.7374399900436401 0.6658220291137695 0.47916701436042786 -0.5719090104103088
          0.41207200288772583 0.6967120170593262 -0.5871859788894653 -0.3845059871673584 0.5190809965133667 -0.763355016708374
          0.49200698733329773 0.4191190004348755 -0.763064980506897 0.06633800268173218 0.5692149996757507 -0.8195080161094666
          0.5840370059013367 0.5652539730072021 -0.5825700163841248 0.6442270278930664 0.6119490265846252 -0.4587920010089874
          0.7913510203361511 0.5093730092048645 -0.3380869925022125 0.7833110094070435 0.4998689889907837 -0.3695339858531952
          -0.5596160292625427 -0.7474420070648193 0.35799500346183777 -0.34881100058555603 -0.8131319880485535 0.46599099040031433
          0.8610759973526001 -0.3337630033493042 0.38360199332237244 0.6931040287017822 -0.46652498841285706 0.5495100021362305
          0.3823060095310211 -0.6745759844779968 0.6314979791641235 0.25703901052474976 -0.7353399991989136 0.6270610094070435
          0.7103279829025269 -0.438073992729187 0.5509309768676758 0.8055840134620667 -0.42050901055336 0.4173800051212311
          0.8348690271377563 -0.3588460087776184 0.417400985956192 -0.15674400329589844 -0.8262420296669006 0.541068971157074
          -0.4638740122318268 -0.7799460291862488 0.4201259911060333 -0.3630639910697937 -0.8046919703483582 0.46974098682403564
          -0.4408999979496002 -0.786512017250061 0.4324429929256439 0.058866001665592194 -0.7919080257415771 0.6077960133552551
          -0.875810980796814 -0.4770849943161011 0.07311099767684937 -0.7682110071182251 -0.6154329776763916 0.17633800208568573
          0.8302090167999268 -0.34090399742126465 0.4410650134086609 -0.9674789905548096 -0.17638200521469116 -0.1813109964132309
          -0.968438982963562 -0.15382200479507446 -0.19612500071525574 -0.9636610150337219 -0.10012499988079071 -0.2476550042629242
          -0.8552870154380798 -0.5119490027427673 0.07995399832725525 -0.9320819973945618 -0.3573090136051178 -0.05960800126194954
          -0.9568809866905212 -0.24418500065803528 -0.1573300063610077 -0.8772550225257874 0.0961190015077591 -0.4703029990196228
          -0.295074999332428 0.6071550250053406 -0.7377619743347168 -0.31546899676322937 0.7435479760169983 -0.5895900130271912
          -0.04855800047516823 0.7742379903793335 -0.6310290098190308 -0.6562010049819946 0.6435030102729797 -0.39408600330352783
          -0.501259982585907 0.8219280242919922 -0.27050501108169556 -0.33012399077415466 0.8398100137710571 -0.43097200989723206
          0.9467470049858093 0.09390699863433838 0.3079789876937866 0.9346269965171814 0.3267509937286377 0.14037999510765076
          0.8269870281219482 0.5617719888687134 0.022443000227212906 0.7439069747924805 0.6682569980621338 0.005888000130653381
          0.9610109925270081 -0.0027630000840872526 0.2764950096607208 -0.5945370197296143 0.5394489765167236 -0.5962550044059753
          -0.4378319978713989 0.6796489953994751 -0.5885409712791443 0.528922975063324 0.7841249704360962 -0.32463499903678894
          0.45966601371765137 0.8879590034484863 0.015389000065624714 0.4499970078468323 0.7898449897766113 -0.4167099893093109
          0.45149898529052734 0.8835430145263672 0.12449699640274048 0.4011229872703552 0.9047629833221436 0.14319099485874176
          0.6574389934539795 0.7517359852790833 -0.05164499953389168 0.3961449861526489 0.9127810001373291 0.09949299693107605
          0.5996189713478088 0.799314022064209 -0.039416998624801636 0.5240510106086731 0.7098780274391174 -0.47057801485061646
          0.06231699883937836 0.7314320206642151 -0.6790609955787659 0.6884329915046692 0.6789770126342773 -0.255048006772995
          0.3452860116958618 0.8224740028381348 -0.45201200246810913 0.7832559943199158 0.5958420038223267 -0.17743200063705444
          -0.5289319753646851 -0.7599949836730957 0.37767499685287476 -0.6995369791984558 -0.6740930080413818 0.23716600239276886
          0.8857539892196655 -0.29560500383377075 0.3578529953956604 0.4841650128364563 -0.6124020218849182 0.6249380111694336
          0.7406409978866577 -0.3997029960155487 0.5400810241699219 0.15920600295066833 -0.7582939863204956 0.6321730017662048
          0.4671880006790161 -0.6533049941062927 0.5957589745521545 0.7184820175170898 -0.42399799823760986 0.5513709783554077
          0.9913910031318665 0.01909399963915348 0.12953799962997437 -0.5506129860877991 -0.7547150254249573 0.35669299960136414
          -0.19151799380779266 -0.822288990020752 0.5358740091323853 -0.3933590054512024 -0.806833028793335 0.44078299403190613
          -0.28957700729370117 -0.8081769943237305 0.5128309726715088 -0.01667100004851818 -0.778361976146698 0.6275950074195862
          -0.9516980051994324 -0.006308000069111586 -0.3069700002670288 -0.9529849886894226 -0.020949000492691994 -0.30229198932647705
          -0.962677001953125 -0.1593649983406067 -0.2187580019235611 -0.8102560043334961 0.2365950047969818 -0.5361980199813843
          -0.7453250288963318 -0.6313480138778687 0.21421900391578674 -0.9024209976196289 -0.4306110143661499 0.014514000155031681
          -0.8016579747200012 -0.5741450190544128 0.16643700003623962 -0.9526370167732239 -0.272271990776062 -0.13546499609947205
          -0.9586219787597656 -0.18894800543785095 -0.21293899416923523 -0.738565981388092 0.28422701358795166 -0.6113380193710327
          -0.690854012966156 0.33162200450897217 -0.6424540281295776 -0.45834699273109436 0.49897798895835876 -0.7354859709739685
          -0.07225699722766876 0.6501160264015198 -0.7563909888267517 0.11966300010681152 0.8775140047073364 -0.4643799960613251
          0.058802999556064606 0.9865610003471375 -0.1524440050125122 0.1842219978570938 0.9015589952468872 -0.39147600531578064
          0.04265400022268295 0.946457028388977 -0.31999900937080383 0.9372529983520508 0.3422349989414215 0.06656999886035919
          0.8333330154418945 0.5501670241355896 -0.05359499901533127 0.8674579858779907 0.49053600430488586 -0.08301699906587601
          0.7184789776802063 0.6896529793739319 -0.09037599712610245 0.9451490044593811 0.3265500068664551 0.0076859998516738415
          -0.292477011680603 0.9099649786949158 -0.29397499561309814 -0.30071601271629333 0.9445980191230774 -0.13154500722885132
          -0.26139700412750244 0.7421020269393921 -0.6172170042991638 -0.3445119857788086 0.6782709956169128 -0.6490449905395508
          0.4511229991912842 0.8762890100479126 -0.16913199424743652 0.629580020904541 0.7466400265693665 -0.21484500169754028
          0.4401330053806305 0.8836699724197388 0.15940900146961212 0.5075219869613647 0.8612920045852661 -0.024442000314593315
          0.4460679888725281 0.888143002986908 0.11056499928236008 0.6038690209388733 0.7797889709472656 -0.16514000296592712
          0.6955329775810242 0.7049379944801331 -0.13891099393367767 0.6397650241851807 0.7543010115623474 -0.1474120020866394
          0.21130700409412384 0.868490993976593 -0.4484109878540039 0.06037700176239014 0.8573930263519287 -0.5111089944839478
          -0.6316540241241455 -0.7064570188522339 0.31926700472831726 0.6923729777336121 -0.45498400926589966 0.5600079894065857
          -0.020726999267935753 -0.780722975730896 0.6245329976081848 0.004976999945938587 -0.8222799897193909 0.5690609812736511
          0.21358299255371094 -0.7709270119667053 0.6000440120697021 0.4864729940891266 -0.654017984867096 0.5793139934539795
          0.9732249975204468 0.22644799947738647 -0.03942200168967247 0.9929180145263672 0.1147959977388382 -0.03060699999332428
          -0.7899839878082275 -0.5932170152664185 0.15498200058937073 -0.7155269980430603 -0.6645560264587402 0.2153719961643219
          -0.6615830063819885 -0.6926100254058838 0.2873989939689636 -0.4644559919834137 -0.7858530282974243 0.4083079993724823
          -0.05363599956035614 -0.8194260001182556 0.5706689953804016 -0.29074999690055847 -0.8207830190658569 0.49171099066734314
          -0.16173799335956573 -0.8116620182991028 0.5612890124320984 -0.8847259879112244 0.18585699796676636 -0.42745399475097656
          -0.8998029828071594 0.1363929957151413 -0.4144290089607239 -0.9608820080757141 -0.0951630026102066 -0.26009601354599
          -0.9226599931716919 0.09825500100851059 -0.3728860020637512 -0.6186050176620483 0.38393598794937134 -0.6855080127716064
          -0.8982579708099365 -0.4394330084323883 0.005623000208288431 -0.9487659931182861 -0.2756370007991791 -0.15448899567127228
          0.13135600090026855 0.7736070156097412 -0.6199020147323608 0.29419800639152527 0.743170976638794 -0.6009529829025269
          0.11043599992990494 0.684194028377533 -0.7208899855613708 -0.1763170063495636 0.6020799875259399 -0.7787240147590637
          0.20987600088119507 0.8620399832725525 -0.46134400367736816 0.215256005525589 0.8211529850959778 -0.5285580158233643
          0.000009999999747378752 0.9998310208320618 0.018386000767350197 0.2904509902000427 0.8644480109214783 -0.4103269875049591
          0.3598780035972595 0.8510450124740601 -0.38237500190734863 0.42297598719596863 0.8970649838447571 -0.12793000042438507
          0.5163469910621643 0.7958710193634033 -0.3161889910697937 0.8706079721450806 0.48549899458885193 -0.07957600057125092
          0.8357880115509033 0.5380139946937561 -0.10954599827528 0.7864180207252502 0.603672981262207 -0.13086199760437012
          0.814935028553009 0.5652940273284912 -0.12776599824428558 0.8057479858398438 0.5720850229263306 -0.15325799584388733
          0.9052240252494812 0.42270898818969727 -0.0434270016849041 0.5163229703903198 0.8487449884414673 0.11421000212430954
          0.6826480031013489 0.7298889756202698 0.03541100025177002 0.4981209933757782 0.8617140054702759 0.09656599909067154
          0.4661180078983307 0.869592010974884 0.1629219949245453 0.6331350207328796 0.7223880290985107 -0.2780210077762604
          0.666018009185791 0.7005590200424194 -0.2561970055103302 0.7283859848976135 0.6638649702072144 -0.16951799392700195