<?xml version="1.0"?>
<VTKFile type="PolyData" version="0.1" byte_order="LittleEndian" header_type="UInt32" compressor="vtkZLibDataCompressor">
  <PolyData>
    <Piece NumberOfPoints="383" NumberOfVerts="0" NumberOfLines="0" NumberOfStrips="0" NumberOfPolys="784">
      <PointData Normals="Normals">
        <DataArray type="Float32" Name="Normals" NumberOfComponents="3" format="ascii" RangeMin="0.9999992717394844" RangeMax="1.0000007387191931">
          0.05663299933075905 -0.6292499899864197 -0.7751370072364807 0.12344300001859665 -0.34575900435447693 -0.9301679730415344
          0.40436801314353943 -0.4980410039424896 -0.7670999765396118 -0.07399299740791321 -0.6029499769210815 -0.7943410277366638
          0.08435899764299393 -0.8194969892501831 -0.5668399930000305 -0.10941000282764435 -0.7097089886665344 -0.695946991443634
          0.1681160032749176 0.36278900504112244 -0.9165809750556946 -0.12179200351238251 -0.24219100177288055 -0.9625539779663086
          0.4516650140285492 0.024608999490737915 -0.8918480277061462 0.7275320291519165 0.12823699414730072 -0.6739829778671265
          0.7525569796562195 -0.19473999738693237 -0.6290730237960815 0.4415459930896759 -0.7544770240783691 -0.4855929911136627
          -0.34509098529815674 -0.435696005821228 -0.8313130140304565 -0.1091499999165535 -0.8320189714431763 -0.5439029932022095
          -0.02549700066447258 -0.8709800243377686 -0.4906570017337799 0.13445700705051422 -0.8918960094451904 -0.43178999423980713
          -0.3106440007686615 -0.5961179733276367 -0.7403669953346252 -0.11498499661684036 0.458763986825943 -0.8810870051383972
          0.5651810169219971 0.5651350021362305 -0.6009939908981323 0.021595999598503113 0.9596430063247681 -0.2803899943828583
          -0.44901400804519653 0.12351600080728531 -0.8849459886550903 0.8635630011558533 0.22051399946212769 -0.4534670114517212
          0.72223299741745 0.6155520081520081 -0.3153969943523407 0.7773939967155457 -0.2972860038280487 -0.5543280243873596
          0.9219679832458496 0.1796099990606308 -0.343095988035202 0.4730510115623474 -0.7708770036697388 -0.4265809953212738
          -0.6147500276565552 0.24849100410938263 -0.7485550045967102 -0.24961599707603455 -0.8258150219917297 -0.5056890249252319
          0.026845000684261322 -0.8240789771080017 -0.5658389925956726 0.17451299726963043 -0.8596910238265991 -0.4800809919834137
          0.3768030107021332 -0.8157680034637451 -0.4387960135936737 -0.6230670213699341 -0.18901699781417847 -0.7589859962463379
          -0.7861149907112122 -0.3821159899234772 -0.48580899834632874 -0.3188050091266632 0.7971580028533936 -0.5127400159835815
          0.47300800681114197 0.8487139940261841 -0.2365339994430542 0.010161000303924084 0.9988800287246704 0.04620100185275078
          -0.1401679962873459 0.9898030161857605 -0.02534399926662445 -0.013530000112950802 0.9708340167999268 0.23937200009822845
          0.007999000139534473 0.9864829778671265 0.16367100179195404 -0.7005000114440918 0.6970310211181641 -0.15312699973583221
          0.8338609933853149 0.5402650237083435 -0.11309000104665756 0.44165900349617004 0.8939740061759949 0.07581599801778793
          0.6952300071716309 -0.6014800071716309 -0.393545001745224 0.7503259778022766 0.6594910025596619 -0.0456399992108345
          0.9146829843521118 0.34928399324417114 -0.20336000621318817 0.8766850233078003 -0.37765198945999146 -0.29799801111221313
          -0.5200049877166748 0.8038700222969055 -0.28877100348472595 -0.8992609977722168 0.19446499645709991 -0.39180800318717957
          -0.03364099934697151 -0.8262789845466614 -0.5622559785842896 -0.1691959947347641 -0.8412659764289856 -0.513463020324707
          -0.5013560056686401 -0.7978540062904358 -0.33476999402046204 -0.5148749947547913 -0.7722169756889343 -0.37226998805999756
          -0.7925860285758972 -0.4399220049381256 -0.42222699522972107 0.1054610013961792 -0.820937991142273 -0.5611940026283264
          0.6569669842720032 -0.658532977104187 -0.3670539855957031 0.366923987865448 -0.7633320093154907 -0.531686007976532
          -0.9107789993286133 0.3326610028743744 -0.2445790022611618 -0.40880998969078064 0.912397027015686 -0.020130999386310577
          0.31193000078201294 0.9491379857063293 0.04284700006246567 -0.300585001707077 0.9324830174446106 0.20031000673770905
          0.019142000004649162 0.9145249724388123 0.4040749967098236 0.2068910002708435 0.9234499931335449 0.32316699624061584
          -0.5573359727859497 0.8289549946784973 0.0470150001347065 -0.6841880083084106 0.7205960154533386 0.1123730018734932
          0.5036720037460327 0.8365330100059509 0.21570000052452087 0.7612429857254028 0.645796000957489 0.05879899859428406
          0.9499310255050659 0.2606770098209381 -0.17227399349212646 0.9876800179481506 -0.11608999967575073 -0.10493499785661697
          -0.4365290105342865 -0.793258011341095 -0.42448100447654724 0.06838999688625336 -0.8313369750976562 -0.5515440106391907
          0.02213899977505207 -0.8440989851951599 -0.5357300043106079 -0.16606399416923523 -0.8474649786949158 -0.5042080283164978
          -0.653311014175415 -0.7344009876251221 -0.18395400047302246 -0.8437560200691223 -0.48033401370048523 -0.23949000239372253
          -0.7700420022010803 -0.6072720289230347 -0.195591002702713 -0.7746570110321045 -0.6034650206565857 -0.18904300034046173
          -0.6681249737739563 -0.6594030261039734 -0.3446680009365082 -0.971697986125946 0.17546199262142181 -0.15816499292850494
          0.6428670287132263 -0.6388149857521057 -0.42265599966049194 0.8835279941558838 -0.4226349890232086 -0.20188799500465393
          0.8713899850845337 -0.4242599904537201 -0.24634000658988953 0.14978699386119843 -0.8323829770088196 -0.5335749983787537
          0.6127269864082336 -0.6357300281524658 -0.4694820046424866 0.34698501229286194 -0.7856429815292358 -0.5122169852256775
          0.027215000241994858 0.8252300024032593 0.5641409754753113 -0.22291399538516998 0.8595809936523438 0.45981499552726746
          0.08948200196027756 0.9045659899711609 0.41683799028396606 -0.07213400304317474 0.8761829733848572 0.47655001282691956
          0.4534069895744324 0.8371149897575378 0.3060390055179596 -0.6572290062904358 0.6951069831848145 0.2913370132446289
          -0.9957360029220581 0.060221001505851746 -0.06988099962472916 0.8309850096702576 0.5547019839286804 0.04206300154328346
          0.8096100091934204 0.5474500060081482 0.21173100173473358 0.9869920015335083 0.1099729984998703 0.11726900190114975
          0.989795982837677 -0.06125099956989288 0.12865899503231049 0.14919200539588928 -0.8342980146408081 -0.5307440161705017
          -0.05514699965715408 -0.8516989946365356 -0.5211219787597656 -0.4174039959907532 -0.7946959733963013 -0.44071799516677856
          -0.9134470224380493 -0.39871498942375183 -0.08148899674415588 -0.8139529824256897 -0.5800290107727051 0.03235200047492981
          -0.8474609851837158 -0.5307559967041016 -0.010351999662816525 -0.906050980091095 -0.4051559865474701 -0.12214799970388412
          -0.7949560284614563 -0.556132972240448 -0.2424049973487854 0.7793430089950562 -0.4735589921474457 -0.41032400727272034
          0.6555879712104797 -0.5697339773178101 -0.4955880045890808 0.9628949761390686 -0.125233992934227 -0.23906099796295166
          0.9812880158424377 0.17993399500846863 0.06853500008583069 0.39545899629592896 -0.766277015209198 -0.5063899755477905
          -0.25574201345443726 0.852196991443634 0.45645999908447266 0.07596399635076523 0.8531439900398254 0.5161150097846985
          -0.043133001774549484 0.8172360062599182 0.5746870040893555 -0.03855999931693077 0.8274270296096802 0.5602489709854126
          0.005382999777793884 0.80827397108078 0.588782012462616 0.36545300483703613 0.7923750281333923 0.4884519875049591
          0.5998070240020752 0.7529839873313904 0.2706409990787506 -0.34911900758743286 0.8141800165176392 0.4639259874820709
          -0.8128470182418823 0.4778989851474762 0.33300599455833435 -0.9884300231933594 0.0828000009059906 0.1270820051431656
          0.7938129901885986 0.41804200410842896 0.44170498847961426 0.8512049913406372 0.30781999230384827 0.42508500814437866
          0.8299329876899719 0.4069019854068756 0.38162899017333984 0.1526239961385727 -0.83024001121521 -0.5361040234565735
          -0.4411790072917938 -0.7165499925613403 -0.5402939915657043 -0.10402300208806992 -0.8433279991149902 -0.5272359848022461
          0.07863199710845947 -0.8431559801101685 -0.5318880081176758 -0.6692839860916138 -0.5593109726905823 -0.4891110062599182
          -0.7514129877090454 -0.5979419946670532 -0.2790040075778961 -0.9861149787902832 -0.12004700303077698 0.11474300175905228
          -0.9491479992866516 -0.21894100308418274 0.2262360006570816 -0.8654080033302307 -0.05296500027179718 0.4982610046863556
          -0.9943159818649292 -0.08467599749565125 -0.06454399973154068 -0.8567529916763306 -0.44437798857688904 -0.26173099875450134
          0.45477399230003357 -0.7177609801292419 -0.5272570252418518 0.3452390134334564 -0.7483109831809998 -0.566428005695343
          0.535627007484436 -0.6328529715538025 -0.5591070055961609 0.885981023311615 -0.20401600003242493 -0.4164319932460785
          0.9377719759941101 0.3460719883441925 -0.028593000024557114 0.9193270206451416 0.31161201000213623 -0.24028299748897552
          0.6035270094871521 0.6718909740447998 0.4293220043182373 0.8262749910354614 0.5427370071411133 0.15068499743938446
          0.2593289911746979 -0.8014559745788574 -0.538902997970581 -0.03268299996852875 0.8264619708061218 0.5620430111885071
          -0.012675000354647636 0.8376039862632751 0.5461310148239136 -0.33257898688316345 0.7903519868850708 0.5145230293273926
          -0.22577500343322754 0.7682790160179138 0.5989770293235779 -0.054030001163482666 0.8372009992599487 0.544219970703125
          0.262908011674881 0.7824500203132629 0.5644930005073547 -0.5203880071640015 0.5903720259666443 0.6169739961624146
          -0.7920269966125488 0.33681100606918335 0.5091680288314819 -0.600928008556366 -0.5935580134391785 -0.5353260040283203
          0.10727900266647339 -0.8231080174446106 -0.5576599836349487 -0.20738300681114197 -0.783253014087677 -0.5860940217971802
          -0.7156260013580322 -0.5536149740219116 -0.4258989989757538 -0.9054200053215027 0.2772209942340851 0.32150301337242126
          -0.7606269717216492 0.2550179958343506 0.5970029830932617 -0.9307649731636047 -0.2271450012922287 -0.2864989936351776
          -0.8876060247421265 0.4474090039730072 0.10945499688386917 -0.9828699827194214 0.1624390035867691 -0.08706700056791306
          0.6023880243301392 -0.5899860262870789 -0.5376290082931519 0.28073298931121826 -0.7474009990692139 -0.6021469831466675
          0.891622006893158 0.20176100730895996 -0.4053420126438141 0.6835520267486572 -0.4111430048942566 -0.6030899882316589
          0.9246730208396912 0.058795999735593796 -0.3761959969997406 0.8083540201187134 0.5825390219688416 -0.08492500334978104
          0.6198179721832275 0.764385998249054 0.17759400606155396 0.8871960043907166 0.3186889886856079 -0.33364900946617126
          0.7460690140724182 0.660302996635437 -0.0859140008687973 0.7800809741020203 0.6187670230865479 -0.092740997672081
          0.0996600016951561 0.862309992313385 0.49647700786590576 0.2797119915485382 0.8944039940834045 0.34900298714637756
          0.04725800082087517 0.9296889901161194 0.3652999997138977 -0.09767399728298187 0.8746479749679565 0.4748159945011139
          -0.11136800050735474 0.9018719792366028 0.4174019992351532 -0.5435469746589661 0.6378260254859924 0.5456510186195374
          -0.21696600317955017 0.8352609872817993 0.5052379965782166 -0.5822929739952087 -0.6086559891700745 -0.5389540195465088
          0.07361400127410889 -0.7694180011749268 -0.6344900131225586 -0.1449739933013916 -0.6865620017051697 -0.7124720215797424
          -0.4044269919395447 -0.6700459718704224 -0.6224769949913025 -0.8294429779052734 -0.3432979881763458 -0.44064798951148987
          -0.729748010635376 0.6185640096664429 0.2912850081920624 -0.97502201795578 0.009906000457704067 -0.22188800573349
          -0.9806990027427673 0.16930599510669708 -0.09780000150203705 -0.9366869926452637 0.33340099453926086 -0.10705900192260742
          -0.4913780093193054 0.8337510228157043 0.25180700421333313 -0.740522027015686 0.6562880277633667 0.14461299777030945
          0.4355599880218506 -0.6379150152206421 -0.6350989937782288 0.27170300483703613 -0.6462739706039429 -0.7130969762802124
          0.46122899651527405 -0.6046509742736816 -0.64935702085495 0.4597960114479065 -0.4579960107803345 -0.7608069777488708
          0.6432440280914307 -0.32439300417900085 -0.6935459971427917 0.8059070110321045 -0.02024500072002411 -0.59169602394104
          0.5878099799156189 0.8068910241127014 0.058368001133203506 0.2214680016040802 0.9336860179901123 0.28139299154281616
          0.3211989998817444 0.9215649962425232 0.2180580049753189 0.7829939723014832 0.5169969797134399 -0.34588301181793213
          0.7581819891929626 0.2563129961490631 -0.5995529890060425 0.4097830057144165 0.8869010210037231 0.21327300369739532
          0.46548300981521606 0.8324909806251526 0.30047300457954407 0.5972359776496887 0.7910339832305908 0.13256700336933136
          -0.12772800028324127 0.933040976524353 0.3363330066204071 -0.05418999865651131 0.9412050247192383 0.33346301317214966
          -0.35856398940086365 0.8549609780311584 0.374796986579895 -0.7069010138511658 -0.3161590099334717 -0.6327199935913086
          -0.5593730211257935 -0.5258679986000061 -0.6407529711723328 0.09478099644184113 -0.6962810158729553 -0.7114840149879456
          0.028095999732613564 -0.6603350043296814 -0.7504460215568542 -0.3789669871330261 -0.49691900610923767 -0.780676007270813
          0.0357000008225441 -0.6473240256309509 -0.7613779902458191 -0.04911800101399422 -0.7432219982147217 -0.6672390103340149
          -0.21901699900627136 -0.581138014793396 -0.7837790250778198 -0.9106900095939636 -0.10530400276184082 -0.39944300055503845
          -0.9424710273742676 0.10549700260162354 -0.317205011844635 -0.8725789785385132 0.10547800362110138 -0.476949006319046
          -0.5937550067901611 0.7636280059814453 0.2536279857158661 -0.8689919710159302 0.4442580044269562 -0.21791599690914154
          -0.8328589797019958 0.5532699823379517 -0.015441999770700932 -0.19606900215148926 0.9233350157737732 0.3301660120487213
          -0.38277000188827515 0.865559995174408 0.3229430019855499 -0.24492600560188293 0.9167370200157166 0.31560200452804565
          0.2515830099582672 -0.5539799928665161 -0.7936069965362549 0.3128179907798767 -0.48891499638557434 -0.8143140077590942
          0.4165320098400116 -0.5088599920272827 -0.753367006778717 0.5899980068206787 -0.20149199664592743 -0.7818589806556702
          0.6449300050735474 -0.38753199577331543 -0.6586989760398865 0.06352300196886063 0.9340680241584778 0.3513990044593811
          0.8081349730491638 0.48556798696517944 -0.3333800137042999 0.7468469738960266 0.6647940278053284 -0.016380999237298965
          0.8091009855270386 0.19404399394989014 -0.5547099709510803 -0.05659700185060501 0.9230290055274963 0.3805460035800934
          0.3570219874382019 0.8564479947090149 0.37286999821662903 0.16588599979877472 0.91178297996521 0.37567800283432007
          0.16414299607276917 0.8970909714698792 0.4102259874343872 0.5033010244369507 0.7489989995956421 0.4309149980545044
          -0.1286509931087494 0.9255579710006714 0.3560769855976105 -0.49947500228881836 -0.4016619920730591 -0.7675889730453491
          -0.7655119895935059 0.12584400177001953 -0.630994975566864 -0.6188290119171143 -0.268653005361557 -0.7381569743156433
          -0.4589399993419647 -0.4668020009994507 -0.7559559941291809 0.12864500284194946 -0.6021659970283508 -0.7879379987716675
          -0.48990198969841003 -0.4083789885044098 -0.770209014415741 -0.16944999992847443 -0.511201024055481 -0.8425920009613037
          -0.5017989873886108 -0.5260679721832275 -0.6866220235824585 0.14253899455070496 -0.5884569883346558 -0.795864999294281
          0.16331900656223297 -0.7689610123634338 -0.6180830001831055 0.08526299893856049 -0.8223620057106018 -0.5625389814376831
          -0.08418600261211395 -0.7002689838409424 -0.7088969945907593 -0.05882899835705757 -0.9164220094680786 -0.3958660066127777
          0.04856500029563904 -0.9519100189208984 -0.3025040030479431 -0.17987799644470215 -0.6026849746704102 -0.7774410247802734
          -0.8583019971847534 0.35079899430274963 -0.3745110034942627 -0.18852399289608002 0.8720269799232483 0.4516940116882324
          -0.2331939935684204 0.860355019569397 0.45322099328041077 -0.584318995475769 0.7730839848518372 0.24680499732494354
          -0.34693801403045654 0.8605549931526184 0.3729330003261566 -0.7633399963378906 0.6433730125427246 0.05816600099205971
          -0.6637359857559204 0.7289379835128784 0.16764000058174133 -0.14311900734901428 0.9190369844436646 0.3672719895839691
          -0.12644900381565094 0.9137660264968872 0.38606101274490356 0.32569900155067444 -0.593222975730896 -0.7362120151519775
          0.4556879997253418 -0.5652830004692078 -0.6876069903373718 0.7135080099105835 -0.5463939905166626 -0.4385890066623688
          0.6749209761619568 -0.6268410086631775 -0.3892979919910431 0.8708029985427856 -0.09813699871301651 -0.4817369878292084
          0.9268140196800232 -0.326449990272522 -0.1855980008840561 0.8525009751319885 0.4848549962043762 0.1953430026769638
          0.9249889850616455 0.33196601271629333 -0.18491700291633606 0.7123100161552429 0.6299620270729065 0.309455007314682
          -0.20397399365901947 0.8951979875564575 0.39625200629234314 0.01659500040113926 0.9097880125045776 0.41474100947380066
          -0.0027389999013394117 0.8926820158958435 0.4506799876689911 -0.24873599410057068 0.9038469791412354 0.3481239974498749
          0.1494079977273941 0.8582630157470703 0.49097999930381775 0.28018298745155334 0.7318689823150635 0.62117999792099
          0.38047000765800476 0.5976939797401428 0.7056940197944641 0.5583140254020691 0.6278640031814575 0.5422850251197815
          -0.7805740237236023 -0.3796609938144684 -0.49654901027679443 -0.8606770038604736 0.10904199630022049 -0.4973379969596863
          -0.8972060084342957 0.43208199739456177 -0.09125299751758575 -0.7049509882926941 -0.590054988861084 -0.393546998500824
          -0.49420401453971863 -0.6550819873809814 -0.5715159773826599 -0.0642710030078888 -0.5274350047111511 -0.8471609950065613
          -0.31891098618507385 -0.7792959809303284 -0.5394369959831238 -0.7139790058135986 -0.6759430170059204 -0.18257899582386017
          -0.6672289967536926 -0.662513017654419 -0.34041500091552734 0.27581700682640076 -0.7308869957923889 -0.6242830157279968
          0.3216339945793152 -0.9367020130157471 -0.13834699988365173 0.2842400074005127 -0.937175989151001 -0.20226000249385834
          -0.1978590041399002 -0.8942099809646606 -0.40154701471328735 -0.100211001932621 -0.9578999876976013 -0.26904600858688354
          -0.08087600022554398 -0.9966980218887329 -0.007156000006943941 -0.15467600524425507 -0.9516919851303101 0.26524901390075684
          0.13818000257015228 -0.8513169884681702 0.5061290264129639 0.35656601190567017 -0.9258170127868652 0.12539300322532654
          -0.08483900129795074 0.9145079851150513 0.3955720067024231 -0.289108008146286 0.8572149872779846 0.426144003868103
          -0.4607349932193756 0.8021699786186218 0.3797979950904846 -0.6486790180206299 0.624064028263092 0.4356139898300171
          0.6621500253677368 -0.6191380023956299 -0.42216700315475464 0.8246070146560669 -0.535768985748291 -0.1815890073776245
          0.7440080046653748 -0.5984830260276794 0.29710400104522705 0.9904689788818359 0.05798500031232834 -0.12493299692869186
          0.9861850142478943 -0.0032190000638365746 0.16561800241470337 0.9406009912490845 -0.27965599298477173 0.19251400232315063
          0.7612320184707642 0.47964900732040405 0.4364199936389923 0.8707780241966248 0.2374880015850067 0.4305169880390167
          -0.12749400734901428 0.8117120265960693 0.5699729919433594 0.056258998811244965 0.794592022895813 0.60453200340271
          0.3180600106716156 0.49001699686050415 0.8116160035133362 0.39200499653816223 0.576786994934082 0.7166929841041565
          0.24240300059318542 0.6499590277671814 0.7202739715576172 0.18517999351024628 0.6606420278549194 0.7275030016899109
          0.6146169900894165 0.3705500066280365 0.6963750123977661 -0.9945300221443176 0.04783400148153305 -0.09285400062799454
          -0.9693530201911926 -0.2145649939775467 0.1196490004658699 -0.8657349944114685 -0.47939300537109375 0.14382000267505646
          -0.8910930156707764 0.21997399628162384 0.39694300293922424 -0.7290980219841003 -0.6694430112838745 0.14234499633312225
          -0.6197609901428223 -0.7833880186080933 0.04690200090408325 -0.40439900755882263 -0.8983839750289917 0.1713699996471405
          -0.5538010001182556 -0.6336359977722168 0.5401949882507324 0.5230219960212708 -0.7946940064430237 -0.30807599425315857
          0.6393380165100098 -0.7180060148239136 0.2751609981060028 0.4600830078125 -0.6438429951667786 0.6113830208778381
          -0.037627000361680984 -0.6438289880752563 0.764244019985199 -0.1923920065164566 -0.28025200963020325 0.9404489994049072
          0.29198500514030457 -0.4401650130748749 0.8491169810295105 0.11659599840641022 0.08947800099849701 0.989139974117279
          0.5505809783935547 -0.24137499928474426 0.7991229891777039 -0.31820398569107056 0.7680559754371643 0.5557309985160828
          -0.4514729976654053 0.5733489990234375 0.6836979985237122 -0.6982799768447876 0.31216201186180115 0.6441739797592163
          0.7682909965515137 -0.6192950010299683 0.16187399625778198 0.6942179799079895 -0.33359798789024353 0.6377879977226257
          0.45198601484298706 -0.39813101291656494 0.7982479929924011 0.48085299134254456 -0.4013200104236603 0.7795659899711609
          0.8121160268783569 -0.12765400111675262 0.5693609714508057 -0.021703999489545822 0.7392160296440125 0.6731190085411072
          -0.18008999526500702 0.6978440284729004 0.6932399868965149 -0.17111900448799133 0.7174530029296875 0.6752619743347168
          0.14572399854660034 0.6856359839439392 0.7132099866867065 0.5042229890823364 0.3881329894065857 0.771435022354126
          0.29177001118659973 0.5419710278511047 0.7881230115890503 0.5253400206565857 -0.14845000207424164 0.8378430008888245
          0.48541900515556335 -0.178957998752594 0.8557699918746948 0.20950700342655182 0.7082319855690002 0.6741759777069092
          0.5920460224151611 -0.18247100710868835 0.784974992275238 -0.7930269837379456 -0.05992899835109711 0.6062309741973877
          -0.6228899955749512 -0.4612810015678406 0.6318449974060059 -0.4127439856529236 -0.5653449892997742 0.7141619920730591
          -0.3276360034942627 -0.5203559994697571 0.788595974445343 -0.09267900139093399 -0.46610599756240845 0.8798620104789734
          0.17271900177001953 -0.2592560052871704 0.9502390027046204 0.1141280010342598 -0.06976000219583511 0.9910140037536621
          0.022400999441742897 -0.28168201446533203 0.9592459797859192 -0.35506901144981384 0.5935090184211731 0.7222700119018555
          -0.588591992855072 0.2793470025062561 0.7586339712142944 -0.4662089943885803 0.12240400165319443 0.8761659860610962
          -0.5692390203475952 -0.08787500113248825 0.8174620270729065 0.32026100158691406 -0.5208650231361389 0.79128497838974
          0.18997199833393097 -0.5126129984855652 0.8373399972915649 0.05075899884104729 0.716389000415802 0.6958529949188232
          -0.20081199705600739 0.7250800132751465 0.658735990524292 -0.09898000210523605 0.6212790012359619 0.7773129940032959
          0.16561199724674225 0.48727500438690186 0.8574000000953674 0.27842000126838684 -0.08459799736738205 0.9567270278930664
          0.47785601019859314 -0.5265499949455261 0.7031350135803223 0.3365840017795563 -0.6817610263824463 0.6495479941368103
          0.30605199933052063 -0.7262700200080872 0.6155189871788025 -0.2106509953737259 -0.4167869985103607 0.8842589855194092
          0.21269699931144714 -0.6843039989471436 0.6974869966506958 -0.013596000149846077 -0.628944993019104 0.7773309946060181
          0.0003819999983534217 -0.6839190125465393 0.729557991027832 -0.290677011013031 0.512283980846405 0.8081279993057251
          -0.4743109941482544 0.16339600086212158 0.8650609850883484 -0.2970679998397827 -0.49241599440574646 0.8180930018424988
          -0.1578489989042282 -0.13103599846363068 0.9787300229072571 -0.05102799832820892 -0.26217201352119446 0.9636710286140442
          -0.24046699702739716 -0.6944649815559387 0.6781550049781799 0.14911100268363953 -0.7687180042266846 0.6219630241394043
          -0.1303420066833496 -0.7271069884300232 0.6740379929542542 -0.019008999690413475 -0.7062860131263733 0.7076719999313354
          -0.29148000478744507 -0.2769159972667694 0.9156180024147034
          <InformationKey name="L2_NORM_RANGE" location="vtkDataArray" length="2">
            <Value index="0">
              0.99999927174
            </Value>
            <Value index="1">
              1.0000007387
            </Value>
          </InformationKey>
        </DataArray>
      </PointData>
      <CellData>
      </CellData>
      <Points>
        <DataArray type="Float32" Name="Points" NumberOfComponents="3" format="ascii" RangeMin="0.09489067437094856" RangeMax="0.10004906041734785">
          0.028047999367117882 -0.07388599961996078 -0.05996299907565117 0.027917999774217606 -0.07335899770259857 -0.06029599905014038
          0.028822999447584152 -0.07391200214624405 -0.05972300097346306 0.027448000386357307 -0.07380399852991104 -0.0599760003387928
          0.02840700000524521 -0.07437200099229813 -0.059436000883579254 0.026948999613523483 -0.0741410031914711 -0.05960800126194954
          0.0279300007969141 -0.07280399650335312 -0.060311999171972275 0.02738500013947487 -0.07331900298595428 -0.06030400097370148
          0.02838899940252304 -0.07312799990177155 -0.06020699813961983 0.0289280004799366 -0.07336200028657913 -0.05983300134539604
          0.02916100062429905 -0.07403399795293808 -0.05934000015258789 0.02894899994134903 -0.0744360014796257 -0.059046000242233276
          0.026768000796437263 -0.07367800176143646 -0.059985000640153885 0.026673000305891037 -0.0744210034608841 -0.05923499912023544
          0.027814999222755432 -0.0745529979467392 -0.05896500125527382 0.0283649992197752 -0.0746769979596138 -0.05880599841475487
          0.026209000498056412 -0.07407800108194351 -0.05947199836373329 0.027396999299526215 -0.07277200371026993 -0.060304999351501465
          0.02842400036752224 -0.07266700267791748 -0.059943001717329025 0.02770099975168705 -0.07222899794578552 -0.059567999094724655
          0.02676600031554699 -0.07303699851036072 -0.06015099957585335 0.029519999399781227 -0.07332699745893478 -0.05897799879312515
          0.029164999723434448 -0.07268299907445908 -0.05875299870967865 0.029529999941587448 -0.07395599782466888 -0.058844998478889465
          0.02982199937105179 -0.07384700328111649 -0.05832299962639809 0.02926499955356121 -0.07447499781847 -0.05861400067806244
          0.026373999193310738 -0.07297299802303314 -0.05983300134539604 0.026395000517368317 -0.07462400197982788 -0.05881800130009651
          0.02754399925470352 -0.0748249962925911 -0.05858900025486946 0.02831999957561493 -0.07493700087070465 -0.05825899913907051
          0.02885100059211254 -0.0749870017170906 -0.057861000299453735 0.02609499916434288 -0.07361099869012833 -0.05968499928712845
          0.025794999673962593 -0.07418700307607651 -0.05897900089621544 0.02711700089275837 -0.0724949985742569 -0.059992000460624695
          0.028710000216960907 -0.07253199815750122 -0.059404000639915466 0.027917999774217606 -0.07217700034379959 -0.059092000126838684
          0.027313999831676483 -0.07219599932432175 -0.05919700115919113 0.028297999873757362 -0.07243099808692932 -0.05779699981212616
          0.02762800082564354 -0.07234399765729904 -0.05821000039577484 0.026114000007510185 -0.07282800227403641 -0.059289999306201935
          0.029618000611662865 -0.0731310024857521 -0.058403998613357544 0.0289900004863739 -0.07256200164556503 -0.05796400085091591
          0.029695000499486923 -0.0744210034608841 -0.05814100056886673 0.029464000836014748 -0.07289200276136398 -0.05772100016474724
          0.029874999076128006 -0.07354500144720078 -0.05790000036358833 0.030016999691724777 -0.07452400028705597 -0.05724700167775154
          0.02653999999165535 -0.0724790021777153 -0.059376999735832214 0.025709999725222588 -0.0733179971575737 -0.058959998190402985
          0.02714800089597702 -0.07511000335216522 -0.05820300057530403 0.027046000584959984 -0.07556899636983871 -0.057461000978946686
          0.026086000725626945 -0.074925996363163 -0.05795599892735481 0.026636000722646713 -0.0756710022687912 -0.05696599930524826
          0.02555599994957447 -0.07429199665784836 -0.05851199850440025 0.02778399921953678 -0.07554999738931656 -0.05754600092768669
          0.029841000214219093 -0.07486700266599655 -0.0569240003824234 0.02848700061440468 -0.07565099745988846 -0.05719999969005585
          0.02559399977326393 -0.07325799763202667 -0.0584149993956089 0.02680700086057186 -0.07232599705457687 -0.05891000106930733
          0.02864599972963333 -0.07241500169038773 -0.05833199992775917 0.026782000437378883 -0.07245399802923203 -0.058107998222112656
          0.027793999761343002 -0.0724719986319542 -0.05762000009417534 0.028692999854683876 -0.07269199937582016 -0.05714999884366989
          0.025989999994635582 -0.07282699644565582 -0.05821700021624565 0.02572700008749962 -0.07308299839496613 -0.057840000838041306