<?xml version="1.0"?>
<VTKFile type="PolyData" version="0.1" byte_order="LittleEndian" header_type="UInt32" compressor="vtkZLibDataCompressor">
  <PolyData>
    <Piece NumberOfPoints="340" NumberOfVerts="0" NumberOfLines="0" NumberOfStrips="0" NumberOfPolys="676">
      <PointData Normals="Normals">
        <DataArray type="Float32" Name="Normals" NumberOfComponents="3" format="ascii" RangeMin="0.9999991997836357" RangeMax="1.0000006767644154">
          0.3935210108757019 -0.017412999644875526 -0.9191510081291199 -0.49280399084091187 0.06088300049304962 -0.868008017539978
          0.763759970664978 0.10229799896478653 -0.6373429894447327 0.8564280271530151 0.015168000012636185 -0.516044020652771
          -0.7418439984321594 0.04256900027394295 -0.669219970703125 0.08418100327253342 -0.010885999538004398 -0.9963909983634949
          0.9996910095214844 -0.022850999608635902 -0.009801999665796757 0.9706910252571106 -0.06240300089120865 -0.23208999633789062
          -0.9063230156898499 -0.05513500049710274 0.41897401213645935 -0.9941660165786743 -0.04404199868440628 -0.09845499694347382
          0.6369860172271729 0.3413259983062744 -0.6911919713020325 -0.5276070237159729 0.2774609923362732 -0.8028990030288696
          -0.9927909970283508 -0.08990699797868729 0.0792670026421547 0.8589900135993958 0.1965399980545044 -0.4727660119533539
          0.9666939973831177 0.1604049950838089 0.19943200051784515 0.9292389750480652 0.010100999847054482 0.3693409860134125
          -0.9451199769973755 0.002626999979838729 0.32671400904655457 -0.6494110226631165 0.04684799909591675 -0.7589930295944214
          -0.9984750151634216 0.05443499982357025 -0.009170999750494957 -0.2440209984779358 -0.01030299998819828 -0.9697149991989136
          -0.03757999837398529 0.031989000737667084 0.9987810254096985 0.3500950038433075 -0.05017999932169914 0.9353690147399902
          0.9977549910545349 -0.06519400328397751 0.015297999605536461 -0.7302320003509521 0.030434999614953995 0.6825209856033325
          -0.061806999146938324 0.09014800190925598 0.9940090179443359 0.7380179762840271 0.5143529772758484 -0.4367719888687134
          0.9418179988861084 0.1834229975938797 -0.28166601061820984 0.10229600220918655 0.44521498680114746 -0.8895609974861145
          -0.9082350134849548 -0.01724199950695038 -0.41810500621795654 -0.9945350289344788 -0.1041489988565445 0.007271999958902597
          -0.832360029220581 0.16435599327087402 0.5293059945106506 -0.9361199736595154 -0.25988098978996277 0.23694199323654175
          -0.8921610116958618 -0.43662700057029724 0.11578799784183502 -0.7072629928588867 0.14473700523376465 0.691976010799408
          0.976036012172699 0.11208800226449966 0.18651899695396423 0.9654110074043274 0.00827100034803152 0.2606010138988495
          -0.014666000381112099 0.23203399777412415 0.9725970029830933 0.21432100236415863 0.47101399302482605 0.8556939959526062
          0.8906340003013611 0.20924900472164154 0.40371501445770264 0.9353399872779846 0.01963699981570244 -0.35320499539375305
          0.9219769835472107 0.2076359987258911 -0.32687199115753174 -0.8140919804573059 0.043170999735593796 0.5791289806365967
          -0.9855859875679016 0.046806998550891876 0.16257299482822418 -0.6900529861450195 0.05683999881148338 0.7215229868888855
          0.09848900139331818 -0.16848300397396088 -0.9807720184326172 0.8950740098953247 -0.18352200090885162 -0.40640199184417725
          -0.6115530133247375 -0.08435799926519394 -0.7866929769515991 -0.9316779971122742 0.001101000001654029 -0.36328500509262085
          0.7603740096092224 -0.0501209981739521 0.6475489735603333 -0.309112012386322 -0.010088999755680561 0.9509720206260681
          0.5072780251502991 0.44747599959373474 -0.7365009784698486 0.7955639958381653 0.5009260177612305 -0.3408089876174927
          0.9398220181465149 0.33957499265670776 -0.037730999290943146 0.950435996055603 0.23144100606441498 -0.2076220065355301
          0.9925900101661682 0.12132400274276733 0.006703000050038099 -0.16795000433921814 0.10275900363922119 -0.9804250001907349
          -0.9059100151062012 -0.32456499338150024 -0.2720020115375519 -0.6252040266990662 -0.3576489984989166 -0.6936910152435303
          -0.8765220046043396 -0.2705790102481842 0.39811599254608154 -0.8408409953117371 -0.26555800437927246 0.4716620147228241
          -0.9913430213928223 -0.03833800181746483 -0.12557299435138702 -0.8339980244636536 -0.46316999197006226 -0.2998659908771515
          -0.7690290212631226 0.3671810030937195 0.5232340097427368 -0.6172559857368469 -0.6600180268287659 0.4282189905643463
          -0.6744340062141418 -0.737716019153595 -0.030236000195145607 0.9073569774627686 0.38735198974609375 0.16328400373458862
          0.8336179852485657 0.1473429948091507 0.5323259830474854 0.91532301902771 -0.16930699348449707 0.3654029965400696
          0.9739559888839722 -0.19979099929332733 0.1072079986333847 0.9881150126457214 0.09084200114011765 0.12399999797344208
          0.7293720245361328 0.5181480050086975 0.4466969966888428 0.14190100133419037 0.7449550032615662 0.6518480181694031
          0.8216909766197205 0.2920530140399933 -0.4894160032272339 0.8130059838294983 0.48938700556755066 -0.3154720067977905
          -0.9430620074272156 0.019301999360322952 0.33205699920654297 0.14915700256824493 -0.20153500139713287 -0.9680579900741577
          -0.27049899101257324 -0.2542249858379364 -0.9285470247268677 0.606486976146698 -0.018334999680519104 -0.7948819994926453
          0.7577670216560364 -0.11063800007104874 0.64307701587677 0.9340729713439941 -0.3529529869556427 -0.05414000153541565
          0.8760340213775635 -0.20706599950790405 -0.43553099036216736 0.9665300250053406 -0.03894000127911568 -0.2535809874534607
          -0.6360689997673035 -0.27023398876190186 -0.7227650284767151 -0.8493779897689819 -0.11846499890089035 -0.5143179893493652
          -0.9402490258216858 -0.04633700102567673 -0.337321013212204 -0.9841269850730896 -0.02187800034880638 -0.17611199617385864
          -0.1631699949502945 -0.06251800060272217 0.9846150279045105 -0.8350980281829834 -0.04769400134682655 0.5480300188064575
          0.570697009563446 0.25790899991989136 -0.7796080112457275 0.42096400260925293 0.14038799703121185 -0.8961480259895325
          0.7695509791374207 0.6111590266227722 -0.18513800203800201 0.6198379993438721 0.7756869792938232 0.11879000067710876
          0.6169840097427368 0.7843729853630066 -0.06395100057125092 -0.07640200108289719 -0.23070600628852844 -0.9700189828872681
          -0.8504239916801453 -0.52121901512146 -0.07148099690675735 -0.9001669883728027 -0.2802770137786865 0.3333820104598999
          -0.6928409934043884 -0.687067985534668 -0.21888099610805511 -0.2979849874973297 -0.699741005897522 -0.6492819786071777
          -0.4576759934425354 -0.5968660116195679 0.6590009927749634 -0.6324970126152039 -0.22213800251483917 0.7420259714126587
          -0.733788013458252 0.11652500182390213 0.669310986995697 -0.8521649837493896 0.057197000831365585 -0.5201380252838135
          -0.8424209952354431 -0.2844339907169342 -0.45762899518013 -0.8145830035209656 0.383789986371994 0.43492498993873596
          -0.9941859841346741 -0.019027000293135643 -0.10598500072956085 -0.9988150000572205 0.04857899993658066 -0.002940000034868717
          -0.8242520093917847 -0.0963279977440834 -0.5579699873924255 -0.7037749886512756 -0.3081069886684418 -0.6401330232620239
          -0.4984399974346161 -0.8239079713821411 0.26969099044799805 -0.9174339771270752 -0.3041970133781433 0.25647300481796265
          -0.9764360189437866 -0.20254400372505188 0.07448499649763107 0.6248959898948669 0.6412280201911926 0.445345014333725
          0.7454169988632202 0.6614869832992554 0.08239199966192245 0.7369250059127808 0.18131500482559204 0.651203989982605
          0.8994429707527161 0.36136099696159363 0.24580499529838562 0.9797409772872925 -0.10449299961328506 -0.1708499938249588
          0.9422889947891235 0.3223460018634796 -0.0904650017619133 0.872285008430481 0.1585090011358261 -0.46259400248527527
          0.7475500106811523 0.5876979827880859 0.30948400497436523 0.38050898909568787 0.5134980082511902 0.7691119909286499
          0.9120979905128479 0.014681999571621418 0.40970999002456665 0.7155569791793823 0.33135300874710083 0.6149659752845764
          0.7873420119285583 0.18162499368190765 0.589156985282898 -0.20317499339580536 0.5641099810600281 0.8003119826316833
          0.29735100269317627 0.3466159999370575 -0.8896290063858032 -0.4217680096626282 -0.10146799683570862 -0.9010080099105835
          -0.009575000032782555 0.16611400246620178 -0.9860600233078003 -0.4777989983558655 -0.3400849997997284 -0.8099700212478638
          0.5827190279960632 0.4779619872570038 -0.657260000705719 0.9299460053443909 0.181427001953125 -0.31981900334358215
          0.7484930157661438 0.2832930088043213 -0.599586009979248 0.6248160004615784 -0.2534230053424835 0.7384989857673645
          0.7880380153656006 -0.37787699699401855 0.48600900173187256 0.860427975654602 -0.5093129873275757 0.016262000426650047
          0.761309027671814 -0.5051739811897278 -0.4064579904079437 0.775475025177002 0.1592639982700348 -0.6109600067138672
          0.8059260249137878 -0.03415299952030182 -0.5910300016403198 0.8501690030097961 -0.45055699348449707 -0.27241700887680054
          0.9782509803771973 0.20685899257659912 0.015324999578297138 -0.8828139901161194 -0.30201900005340576 -0.3597570061683655
          -0.9781240224838257 -0.18143799901008606 0.10175599902868271 -0.9416540265083313 -0.11151900142431259 0.3175700008869171
          -0.6352800130844116 -0.15762700140476227 0.7560240030288696 -0.08000600337982178 -0.24477200210094452 0.9662740230560303
          0.42680299282073975 0.4172469973564148 -0.8023369908332825 0.5156170129776001 -0.30573800206184387 -0.8004140257835388
          0.5802350044250488 -0.10668099671602249 -0.8074319958686829 0.5308889746665955 -0.16746200621128082 -0.8307300209999084
          0.5096240043640137 0.7032439708709717 -0.4957129955291748 0.514864981174469 0.8551170229911804 -0.06072700023651123
          0.4778600037097931 0.8781920075416565 -0.020697999745607376 0.3258900046348572 0.8880929946899414 0.32416999340057373
          0.41322100162506104 0.8329330086708069 -0.3680639863014221 0.3956739902496338 0.8894230127334595 -0.22884100675582886
          0.512362003326416 0.8179020285606384 0.2617659866809845 -0.009227000176906586 -0.5413720011711121 -0.8407319784164429
          -0.9194459915161133 -0.26943299174308777 0.2863999903202057 -0.7621020078659058 -0.6259260177612305 0.16558100283145905
          -0.5064399838447571 -0.8435389995574951 -0.17877300083637238 0.25647398829460144 -0.5129640102386475 -0.8191999793052673
          0.10775099694728851 -0.882315993309021 -0.4581570029258728 0.10555599629878998 -0.7078400254249573 -0.6984419822692871
          -0.21456600725650787 -0.9266600012779236 -0.30864500999450684 -0.5391029715538025 -0.6894969940185547 0.48369500041007996
          -0.7603790163993835 0.26045599579811096 0.5949680209159851 -0.8394899964332581 0.4061020016670227 0.3610230088233948
          -0.9241880178451538 0.19209499657154083 0.3301140069961548 -0.6769480109214783 0.2971769869327545 -0.6733700037002563
          -0.86844402551651 0.3341880142688751 -0.36622700095176697 -0.6900539994239807 0.13368800282478333 0.7113040089607239
          -0.9426000118255615 -0.17570799589157104 0.28395599126815796 -0.9092990159988403 -0.41576600074768066 -0.01770400069653988
          -0.9782040119171143 -0.17125199735164642 -0.11742699891328812 -0.9282249808311462 0.37007999420166016 0.037928998470306396
          -0.7333170175552368 0.6602910161018372 -0.1620579957962036 -0.7389429807662964 0.5134339928627014 -0.4362890124320984
          -0.6264969706535339 0.3382669985294342 -0.7021949887275696 0.5856109857559204 0.6110460162162781 0.5326189994812012
          0.7428629994392395 0.6471779942512512 0.17121699452400208 0.5519589781761169 0.8338710069656372 0.0010290000354871154
          0.8336750268936157 0.4478229880332947 0.323172003030777 0.9628250002861023 0.1837410032749176 0.1980080008506775
          0.7629550099372864 0.5826879739761353 -0.2799539864063263 0.6924539804458618 0.6355999708175659 -0.3413510024547577
          0.7200739979743958 0.6905859708786011 -0.0677110031247139 0.9384520053863525 0.34106698632240295 0.05460299924015999
          0.8182759881019592 0.38656800985336304 0.42542800307273865 0.5595729947090149 0.2962479889392853 0.7740259766578674
          0.38672998547554016 0.2883090078830719 0.8759670257568359 -0.21359699964523315 0.13717499375343323 0.9672430157661438
          0.3481769859790802 -0.11254099756479263 0.9306489825248718 0.8244460225105286 -0.2988390028476715 0.4806089997291565
          0.714044988155365 -0.016688000410795212 0.6999009847640991 0.8855680227279663 -0.22046899795532227 0.40885600447654724
          -0.2385849952697754 0.6051459908485413 -0.7595229744911194 -0.0163199994713068 0.6835860013961792 -0.729686975479126
          -0.31809699535369873 0.28596800565719604 -0.9039009809494019 -0.5918620228767395 0.4360719919204712 -0.6778939962387085
          -0.8238829970359802 0.11673100292682648 -0.5546079874038696 -0.8292880058288574 -0.29298698902130127 -0.4758569896221161
          0.09022200107574463 0.7802969813346863 -0.6188669800758362 0.6383180022239685 0.6810330152511597 -0.3588089942932129
          0.23200799524784088 0.9088720083236694 -0.3465900123119354 0.8535230159759521 0.49985000491142273 -0.1471329927444458
          0.3685019910335541 -0.4517059922218323 0.8125069737434387 0.5548250079154968 -0.6771699786186218 0.48333099484443665
          0.7128530144691467 -0.3940030038356781 0.58017498254776 0.7396939992904663 0.08927100151777267 0.6669960021972656
          0.9855849742889404 -0.10020799934864044 0.13631199300289154 0.8692479729652405 0.23548400402069092 0.434689998626709
          0.8656520247459412 0.4541679918766022 -0.21066300570964813 0.7650349736213684 0.4640420079231262 -0.44652700424194336
          0.7383930087089539 0.2919889986515045 -0.6078810095787048 0.9597679972648621 0.2789730131626129 -0.03194800019264221
          -0.863610029220581 -0.48160499334335327 -0.14910799264907837 -0.9714459776878357 -0.2163649946451187 -0.09735900163650513
          -0.8410559892654419 -0.5246719717979431 0.1316950023174286 -0.6673150062561035 -0.47210800647735596 0.5760250091552734
          -0.6725670099258423 -0.2893249988555908 0.6811349987983704 0.07833100110292435 -0.4341470003128052 0.8974300026893616
          -0.2762959897518158 -0.5274829864501953 0.8033819794654846 0.49149900674819946 0.8208500146865845 -0.2909190058708191
          0.7137519717216492 0.4672609865665436 -0.5217519998550415 0.8132320046424866 -0.060162998735904694 -0.5788210034370422
          0.8893970251083374 -0.4060789942741394 -0.2099359929561615 0.6782619953155518 -0.6889899969100952 -0.2554459869861603
          0.39992401003837585 -0.5977650284767151 -0.6947929859161377 0.7916640043258667 0.6108700037002563 0.01027899980545044
          0.6193730235099792 0.7058079838752747 0.3438200056552887 -0.9918460249900818 -0.1274459958076477 -0.00018699999782256782
          -0.7063590288162231 -0.6950539946556091 -0.1340080052614212 -0.7920169830322266 -0.5927280187606812 0.14622800052165985
          -0.33147698640823364 -0.9426959753036499 -0.038036998361349106 0.3873879909515381 -0.8119739890098572 -0.43661099672317505
          0.5041880011558533 -0.8631389737129211 -0.028022000566124916 0.1433189958333969 -0.9888269901275635 -0.04099800065159798
          -0.55731600522995 0.6230670213699341 -0.548803985118866 -0.9245160222053528 -0.22473399341106415 -0.3078399896621704
          -0.45765501260757446 -0.19003400206565857 0.8685839772224426 -0.6635140180587769 -0.6558679938316345 0.3599810004234314
          -0.6278610229492188 -0.7782760262489319 -0.008806999772787094 -0.8373720049858093 -0.5167760252952576 0.1781889945268631
          -0.9730349779129028 -0.22758999466896057 0.03750599920749664 0.9515380263328552 0.2963689863681793 0.08210799843072891
          0.8963109850883484 -0.26259198784828186 0.35731199383735657 0.8730189800262451 0.30883198976516724 0.3774400055408478
          0.8877509832382202 -0.4574219882488251 -0.05161700025200844 0.9962130188941956 -0.04388599842786789 0.07506400346755981
          0.9774209856987 -0.20476800203323364 0.05213499814271927 0.8621140122413635 0.029872000217437744 0.5058330297470093
          0.33403000235557556 -0.013070999644696712 0.942471981048584 0.5400320291519165 -0.17630599439144135 0.8229719996452332
          -0.024118000641465187 -0.16950500011444092 0.9852340221405029 0.3431920111179352 -0.6109830141067505 0.7133859992027283
          -0.05889600142836571 -0.37070798873901367 0.9268800020217896 0.6085429787635803 -0.7064570188522339 0.3613770008087158
          0.6953399777412415 -0.6598320007324219 0.2848230004310608 -0.4329510033130646 0.6054379940032959 -0.6678299903869629
          -0.39159199595451355 0.7593050003051758 -0.5197229981422424 -0.7513020038604736 0.5582420229911804 -0.3520109951496124
          -0.5089989900588989 0.8011549711227417 -0.31475600600242615 -0.8891410231590271 0.36059001088142395 -0.2817870080471039
          -0.9331550002098083 -0.04413500055670738 -0.35675400495529175 -0.8786919713020325 -0.3066349923610687 -0.3658899962902069
          0.6104310154914856 0.7877500057220459 -0.08260700106620789 0.24020199477672577 0.923121988773346 -0.30024901032447815
          -0.17592599987983704 0.8280349969863892 -0.5323609709739685 0.39901700615882874 0.9115719795227051 -0.09910500049591064
          0.13814200460910797 -0.7529500126838684 0.6434149742126465 0.3821839988231659 -0.8164119720458984 0.432904988527298
          0.6123319864273071 -0.6219949722290039 0.48802900314331055 0.6102709770202637 -0.19407300651073456 0.7680519819259644
          0.720104992389679 0.4877850115299225 0.49347200989723206 0.3979089856147766 0.09071999788284302 0.9129289984703064
          0.40793201327323914 0.4263710081577301 0.8073409795761108 0.720911979675293 0.683122992515564 0.11673600226640701
          0.5967000126838684 0.7607190012931824 -0.2554520070552826 0.6863499879837036 0.6940079927444458 -0.21743300557136536
          0.809611976146698 0.48102301359176636 -0.3363710045814514 -0.9112269878387451 -0.3947570025920868 -0.1176069974899292
          -0.6167619824409485 -0.5630419850349426 0.5500810146331787 -0.5415710210800171 -0.670179009437561 0.5075049996376038
          -0.8366000056266785 -0.44959500432014465 0.31299400329589844 -0.1510159969329834 -0.7616890072822571 0.6300989985466003
          0.9683949947357178 0.2282239943742752 -0.10062199831008911 0.9820110201835632 -0.1512639969587326 -0.11302399635314941
          0.8253380060195923 -0.5390610098838806 0.16801899671554565 -0.4123289883136749 -0.7840420007705688 -0.4639649987220764
          -0.03958100080490112 -0.977446973323822 -0.20743800699710846 0.40958699584007263 -0.9071959853172302 0.09610000252723694
          -0.8073809742927551 -0.4643090069293976 -0.36407700181007385 -0.2854959964752197 -0.9583730101585388 0.0035329998936504126
          -0.13883699476718903 -0.8627539873123169 0.48618900775909424 -0.26012399792671204 -0.9651579856872559 -0.02838600054383278
          -0.5677340030670166 -0.7747660279273987 0.2782360017299652 -0.6442390084266663 -0.4691709876060486 0.6040160059928894
          -0.8852959871292114 -0.36316999793052673 0.2904449999332428 0.9623000025749207 -0.035509999841451645 0.269663006067276
          0.4412589967250824 -0.8496559858322144 -0.28874900937080383 0.7675949931144714 -0.6402909755706787 -0.028728999197483063
          0.65904700756073 -0.25361698865890503 0.7080510258674622 0.6086850166320801 -0.5407879948616028 0.5805609822273254
          0.08527500182390213 -0.3127410113811493 0.9460030198097229 0.027249999344348907 -0.3225820064544678 0.9461489915847778
          0.12612199783325195 -0.8482249975204468 0.5144010186195374 0.13417699933052063 -0.9809309840202332 0.14060799777507782
          0.103084996342659 -0.9938979744911194 0.03924199938774109 -0.7943210005760193 0.5696039795875549 0.21119999885559082
          -0.18698300421237946 0.8775020241737366 -0.44161999225616455 -0.20807400345802307 0.9759789705276489 -0.06458199769258499
          -0.37786900997161865 0.8281260132789612 0.4140309989452362 -0.9638389945030212 0.25427401065826416 -0.07974299788475037
          -0.999763011932373 -0.02029700018465519 0.007906000129878521 0.192453995347023 0.9162430167198181 -0.3513680100440979
          -0.17151999473571777 -0.7616569995880127 0.6248670220375061 0.025258999317884445 -0.7797309756278992 0.6256049871444702
          0.3110800087451935 -0.6512799859046936 0.6921449899673462 0.2680110037326813 -0.24616700410842896 0.9314349889755249
          0.22191199660301208 0.7759140133857727 0.5905190110206604 -0.12158700078725815 0.18491700291633606 0.9752039909362793
          0.09564399719238281 0.5194209814071655 0.8491489887237549 0.17034800350666046 0.9781439900398254 0.11922799795866013
          -0.9129400253295898 0.07648999989032745 0.400860995054245 -0.38576599955558777 -0.41023001074790955 0.8263750076293945
          -0.7015429735183716 0.013706999830901623 0.7124959826469421 -0.4846409857273102 -0.10646600276231766 0.8682100176811218
          -0.3420329988002777 -0.8602160215377808 -0.3782080113887787 0.00043200000072829425 -0.9088900089263916 -0.4170370101928711
          -0.7253779768943787 -0.6850230097770691 -0.06760700047016144 -0.4313090145587921 -0.7599899768829346 0.48619699478149414
          -0.5242469906806946 -0.7763800024986267 0.3498559892177582 -0.22656600177288055 -0.6434950232505798 0.7311509847640991
          -0.3286139965057373 -0.5210450291633606 0.7877339720726013 0.4539340138435364 -0.8849959969520569 -0.10356800258159637
          0.03839699923992157 -0.9883229732513428 -0.14745700359344482 0.2946709990501404 -0.8280010223388672 0.47705599665641785
          -0.9391019940376282 0.2640269994735718 0.21994900703430176 -0.6120219826698303 0.3964569866657257 0.6842889785766602
          -0.2035209983587265 0.5729420185089111 0.7939249873161316 -0.08727099746465683 -0.2895829975605011 0.9531660079956055
          <InformationKey name="L2_NORM_RANGE" location="vtkDataArray" length="2">
            <Value index="0">
              0.99999919978
            </Value>
            <Value index="1">
              1.0000006768
            </Value>
          </InformationKey>
        </DataArray>
      </PointData>
      <CellData>
      </CellData>
      <Points>
        <DataArray type="Float32" Name="Points" NumberOfComponents="3" format="ascii" RangeMin="0.012093455278309904" RangeMax="0.300261693531112">
          0.0017989999614655972 -0.18509000539779663 -0.007098999805748463 -0.0033499998971819878 -0.22861100733280182 -0.009503000415861607
          0.010027999989688396 -0.2374110072851181 -0.0023640000727027655 0.009248999878764153 -0.2153480052947998 -0.002382999984547496
          -0.005688999779522419 -0.17959199845790863 -0.0058200000785291195 0.006976000033318996 -0.14707200229167938 -0.007765000220388174
          0.011714000254869461 -0.1769769936800003 0.0005779999773949385 0.013845999725162983 -0.1436299979686737 -0.003777999896556139
          -0.00381199992261827 -0.22787299752235413 0.00749199977144599 -0.006928000133484602 -0.20598700642585754 -0.004341000225394964
          0.006233000196516514 -0.24893100559711456 -0.010033000260591507 -0.0008159999852068722 -0.24948200583457947 -0.014295999892055988
          -0.0024939998984336853 -0.24515199661254883 0.003751999931409955 0.009731999598443508 -0.24709300696849823 -0.005444000009447336
          0.011497000232338905 -0.24506600201129913 0.0017269999952986836 0.010274999774992466 -0.21590399742126465 0.001104000024497509
          -0.005907000042498112 -0.2047490030527115 0.004532000049948692 -0.003848999971523881 -0.1558620035648346 -0.005200999788939953
          -0.006372000090777874 -0.1560879945755005 0.0008459999808110297 0.0029819998890161514 -0.08728499710559845 -0.008852999657392502
          -0.002587999915704131 -0.17495599389076233 0.007706000003963709 0.004616999998688698 -0.12393499910831451 0.007459000218659639
          0.015870999544858932 -0.0990070030093193 -0.001285000005736947 -0.0024019998963922262 -0.23657600581645966 0.008759000338613987
          0.0001990000018849969 -0.23680900037288666 0.010267999954521656 0.009724999777972698 -0.2659299969673157 -0.01782199926674366
          0.011549999937415123 -0.2660770118236542 -0.013020999729633331 0.0023849999997764826 -0.2625190019607544 -0.020880000665783882
          -0.00026699999580159783 -0.2633259892463684 -0.01913299970328808 0.00013699999544769526 -0.2617279887199402 0.013962999917566776
          0.00028899998869746923 -0.2609519958496094 0.015838999301195145 -0.0010010000551119447 -0.26623401045799255 -0.005903999786823988
          0.0013559999642893672 -0.2651360034942627 0.0018240000354126096 -0.00029200001154094934 -0.25310200452804565 0.012872000224888325
          0.015402000397443771 -0.2725229859352112 -0.0005230000242590904 0.01372000016272068 -0.26694101095199585 0.00443200021982193
          0.0005929999751970172 -0.24504299461841583 0.011533999815583229 0.0031139999628067017 -0.26239100098609924 0.01733499951660633
          0.011831000447273254 -0.26081201434135437 0.008921000175178051 0.014078999869525433 -0.26949501037597656 -0.004236999899148941
          0.01498199999332428 -0.27281901240348816 -0.0028150000143796206 -0.004666000138968229 -0.15593400597572327 0.004891999997198582
          -0.0024709999561309814 -0.09808100014925003 0.0004330000083427876 -0.002713999943807721 -0.12748600542545319 0.004166000057011843
          0.009014000184834003 -0.036122001707553864 -0.010723999701440334 0.017710000276565552 -0.03192700073122978 -0.006054999772459269
          0.00380500010214746 -0.03634899854660034 -0.009731999598443508 -0.0014199999859556556 -0.07284600287675858 -0.0030010000336915255
          0.01335499994456768 -0.08249100297689438 0.003955999854952097 0.004767999984323978 -0.09747199714183807 0.008317999541759491
          0.010664000175893307 -0.2710599899291992 -0.02307100035250187 0.012476000003516674 -0.2718220055103302 -0.02164500020444393
          0.01183599978685379 -0.26951199769973755 -0.017285000532865524 0.012171000242233276 -0.2735219895839691 -0.008143000304698944
          0.011815999634563923 -0.2722190022468567 -0.01195599976927042 0.006713000126183033 -0.27114999294281006 -0.023984000086784363
          0.001164000015705824 -0.2801609933376312 -0.015096000395715237 0.005133000202476978 -0.2782920002937317 -0.02250399999320507
          -0.0009590000263415277 -0.2713159918785095 -0.008967000059783459 -0.0007849999819882214 -0.2760240137577057 -0.01046799961477518
          0.0008510000188834965 -0.27407100796699524 0.019294999539852142 0.0016339999856427312 -0.2690959870815277 0.011017999611794949
          0.0006689999718219042 -0.2659339904785156 0.01860000006854534 0.0031220000237226486 -0.269665002822876 -0.003083999967202544
          0.006403000093996525 -0.2708609998226166 0.0006629999843426049 0.016005000099539757 -0.27537500858306885 -0.0007220000261440873
          0.014605999924242496 -0.2737100124359131 0.0016400000313296914 0.01307000033557415 -0.27134498953819275 0.004356999881565571
          0.012745999731123447 -0.27051299810409546 0.008464000187814236 0.01297600008547306 -0.27031099796295166 0.012485000304877758
          0.011946000158786774 -0.27374500036239624 0.018101999536156654 0.003102000104263425 -0.2706319987773895 0.023725999519228935
          0.013531000353395939 -0.27393999695777893 -0.004834999796003103 0.016200000420212746 -0.2759059965610504 -0.003073000116273761
          -0.0014049999881535769 -0.07658299803733826 0.0009250000002793968 0.011978000402450562 -0.007400999777019024 -0.018061000853776932
          0.0040790000930428505 -0.020976999774575233 -0.01295700017362833 0.016363000497221947 -0.002449000021442771 -0.017091000452637672
          0.011787000112235546 -0.059390999376773834 0.008310999721288681 0.020076999440789223 -0.022982999682426453 0.0033360000234097242
          0.022244999185204506 -0.008154000155627728 -0.0028550000861287117 0.023145999759435654 -0.0029120000544935465 -0.010358000174164772
          0.0006300000241026282 -0.021321000531315804 -0.011258999817073345 -0.0015150000108405948 -0.03609500080347061 -0.0032770000398159027
          -0.0016720000421628356 -0.04411900043487549 -0.0030789999291300774 -0.0014819999923929572 -0.0500670000910759 -0.003089000005275011
          0.008023999631404877 -0.0451820008456707 0.00939400028437376 -0.00037299998803064227 -0.05431799963116646 0.0023870000150054693
          0.015305000357329845 -0.2770079970359802 -0.02159699983894825 0.01295199990272522 -0.2763499915599823 -0.023531999439001083
          0.014031999744474888 -0.27397701144218445 -0.02026199921965599 0.012388999573886395 -0.2747350037097931 -0.013167999684810638
          0.01690799929201603 -0.27842798829078674 -0.005071999970823526 0.010552000254392624 -0.2799740135669708 -0.02428399957716465
          0.003837000112980604 -0.2877109944820404 -0.011597000062465668 0.001474000047892332 -0.2811479866504669 -0.010626000352203846
          0.005303999874740839 -0.289341002702713 -0.011676999740302563 0.010664000175893307 -0.28693899512290955 -0.02026600018143654
          0.002202000003308058 -0.2721239924430847 -0.006591999903321266 0.006932999938726425 -0.2740580141544342 -0.0056409998796880245
          0.003467000089585781 -0.2769779860973358 -0.007734000217169523 0.0019229999743402004 -0.2773570120334625 0.014587000012397766