<?xml version="1.0"?>
<VTKFile type="PolyData" version="0.1" byte_order="LittleEndian" header_type="UInt32" compressor="vtkZLibDataCompressor">
  <PolyData>
    <Piece NumberOfPoints="127" NumberOfVerts="0" NumberOfLines="0" NumberOfStrips="0" NumberOfPolys="250">
      <PointData Normals="Normals">
        <DataArray type="Float32" Name="Normals" NumberOfComponents="3" format="ascii" RangeMin="0.9999994085721584" RangeMax="1.0000006296044026">
          0.24287599325180054 -0.8710100054740906 0.42702800035476685 -0.009451000019907951 -0.93784499168396 0.3469260036945343
          0.2749829888343811 -0.6679319739341736 0.691556990146637 0.026148000732064247 -0.9932439923286438 0.11306200176477432
          0.45279499888420105 -0.5601720213890076 0.6936740279197693 0.255731999874115 -0.8502029776573181 0.4601689875125885
          0.06310299783945084 -0.7015290260314941 0.7098420262336731 -0.21447700262069702 -0.9522889852523804 0.21713100373744965
          -0.2336519956588745 -0.9720240235328674 0.023993000388145447 0.6230109930038452 -0.11754199862480164 0.7733309864997864
          0.5678110122680664 0.0641380026936531 0.8206570148468018 -0.8820340037345886 -0.41446998715400696 0.2241239994764328
          -0.1895570009946823 -0.9650260210037231 0.18108899891376495 0.06780900061130524 -0.327894002199173 0.9422780275344849
          0.5337539911270142 -0.023041000589728355 0.8453260064125061 -0.15987400710582733 -0.859948992729187 0.4846940040588379
          -0.19646699726581573 -0.6197540163993835 0.7598069906234741 -0.12683799862861633 -0.8992739915847778 0.4185909926891327
          0.09291499853134155 -0.3126769959926605 0.9453039765357971 0.2818329930305481 0.1473979949951172 0.9480739831924438
          -0.24651099741458893 -0.9624670147895813 -0.1135300025343895 -0.2562580108642578 -0.903768002986908 -0.342835009098053
          -0.1953510046005249 -0.8518249988555908 -0.4860369861125946 -0.9642829895019531 -0.19265399873256683 -0.18177799880504608
          -0.974469006061554 -0.0669969990849495 0.21429400146007538 0.7198150157928467 0.54898601770401 0.42482998967170715
          0.6646159887313843 0.42214399576187134 0.6165059804916382 0.4760810136795044 0.7423639893531799 0.47142601013183594
          0.6345639824867249 0.6958690285682678 0.3362950086593628 -0.9474250078201294 -0.14602099359035492 0.28471601009368896
          -0.6993460059165955 0.7038580179214478 0.12449599802494049 -0.856319010257721 0.48379001021385193 0.1807360053062439
          0.06066200137138367 0.26304998993873596 0.9628729820251465 -0.8230869770050049 0.33567601442337036 0.45809298753738403
          -0.699832022190094 -0.06709600239992142 0.7111499905586243 0.1908479928970337 0.6629530191421509 0.7239270210266113
          -0.30051499605178833 -0.90413898229599 0.30368199944496155 -0.3151470124721527 -0.7136610150337219 0.6255959868431091
          -0.02794099971652031 -0.999534010887146 0.012263000011444092 -0.04755999892950058 0.716156005859375 0.6963179707527161
          -0.05555899813771248 -0.9326040148735046 -0.35659798979759216 -0.35342198610305786 -0.8032100200653076 -0.47952800989151
          -0.27854299545288086 -0.4521990120410919 -0.847307026386261 -0.20638999342918396 -0.6098269820213318 -0.765188992023468
          0.039687998592853546 -0.23454700410366058 -0.9712939858436584 0.09732899814844131 -0.48029300570487976 -0.8716920018196106
          0.005177000071853399 -0.7416399717330933 -0.6707789897918701 -0.9212390184402466 0.05885700136423111 -0.38451799750328064
          -0.7948769927024841 0.6045020222663879 0.0524200014770031 -0.8286629915237427 0.5514079928398132 0.09626899659633636
          0.5148599743843079 0.8358590006828308 -0.19041700661182404 0.36845898628234863 0.8856639862060547 0.2825529873371124
          0.527849018573761 0.8482800126075745 -0.04238799959421158 -0.9954239726066589 -0.0822950005531311 0.04856399819254875
          -0.9640210270881653 0.11649800091981888 0.23894000053405762 -0.8575209975242615 0.5095639824867249 0.07073300331830978
          -0.959846019744873 0.2220820039510727 0.1713940054178238 -0.5614500045776367 0.6328129768371582 0.5332180261611938
          -0.4821169972419739 0.7684910297393799 0.4206950068473816 -0.9489889740943909 0.2645080089569092 0.17162799835205078
          0.0005949999904260039 -0.7560110092163086 0.654558002948761 -0.025433000177145004 -0.9722939729690552 0.2323720008134842
          -0.4738430082798004 -0.6839389801025391 0.5547080039978027 -0.8062459826469421 -0.2706089913845062 0.5260589718818665
          0.17975200712680817 -0.9736329913139343 -0.14045800268650055 0.10676500201225281 -0.9941920042037964 -0.013559999875724316
          0.9135310053825378 -0.40672600269317627 -0.005963999778032303 0.5333399772644043 -0.8266010284423828 -0.1796649992465973
          0.1375650018453598 0.9899510145187378 -0.03274200111627579 -0.21065600216388702 0.9775450229644775 -0.005570999812334776
          -0.29383501410484314 0.95489102602005 0.042952001094818115 -0.2674359977245331 -0.7112389802932739 -0.6500899791717529
          0.4683209955692291 -0.1904280036687851 -0.8627939820289612 0.682142972946167 -0.5087599754333496 -0.5252079963684082
          -0.5572819709777832 -0.5781170129776001 -0.5960010290145874 -0.4438779950141907 -0.6364120244979858 -0.6308339834213257
          -0.1958329975605011 -0.09033399820327759 -0.976468026638031 -0.7121649980545044 -0.03853200003504753 -0.7009530067443848
          -0.24037499725818634 0.7013490200042725 -0.6710659861564636 -0.0814019963145256 0.14826999604701996 -0.9855909943580627
          0.3125230073928833 0.7226499915122986 -0.6165279746055603 0.5448480248451233 0.27604401111602783 -0.791795015335083
          0.3240329921245575 -0.25039198994636536 -0.9123079776763916 0.008705000393092632 -0.40819400548934937 -0.912854015827179
          -0.6406810283660889 -0.4017069935798645 -0.6543390154838562 -0.8733950257301331 0.4706290066242218 -0.12525500357151031
          -0.9704149961471558 0.20045100152492523 0.13458600640296936 -0.8511530160903931 0.5098609924316406 0.12481699883937836
          -0.9864280223846436 0.10655999928712845 0.12491899728775024 0.5553489923477173 0.3416900038719177 -0.7581790089607239
          0.2126079946756363 0.6316109895706177 -0.7455639839172363 -0.1837099939584732 0.8241680264472961 -0.535722017288208
          -0.13179700076580048 0.9856680035591125 -0.10530500113964081 -0.8743829727172852 0.46224600076675415 0.14758899807929993
          -0.22245599329471588 0.9335579872131348 0.28103700280189514 -0.9765549898147583 -0.18095700442790985 0.11659999936819077
          0.569441020488739 -0.028886999934911728 0.821524977684021 0.4062660038471222 0.03381799906492233 0.9131289720535278
          0.6612539887428284 -0.23800000548362732 0.7114059925079346 0.2675670087337494 -0.05034799873828888 0.9622229933738708
          0.7157559990882874 -0.47751501202583313 0.5095800161361694 -0.050602998584508896 0.07641500234603882 0.9957910180091858
          -0.7993209958076477 0.2751210033893585 0.5342239737510681 0.8059430122375488 0.5088549852371216 0.3025279939174652
          0.9060479998588562 0.3400709927082062 -0.25185298919677734 0.49861499667167664 0.8668220043182373 -0.0017049999441951513
          0.04934899881482124 0.9984650015830994 0.025151999667286873 -0.17781199514865875 0.9808869957923889 0.07901600003242493
          -0.13110999763011932 0.9117590188980103 0.38923799991607666 0.4249520003795624 0.8065069913864136 0.4110490083694458
          0.17831000685691833 0.06865700334310532 -0.9815760254859924 -0.2400909960269928 -0.10635700076818466 -0.9649069905281067
          0.5735530257225037 0.6535090208053589 -0.4939259886741638 -0.3218480050563812 0.1438390016555786 -0.9358010292053223
          -0.6745619773864746 0.4392569959163666 -0.5933120250701904 -0.48178398609161377 0.8750429749488831 -0.04672500118613243
          0.2379319965839386 0.12040100246667862 -0.9637899994850159 -0.7859709858894348 -0.002225999953225255 -0.6182590126991272
          -0.10270199924707413 0.04889100044965744 -0.9935100078582764 -0.9272940158843994 -0.10404100269079208 0.3595860004425049
          -0.974835991859436 0.06770200282335281 0.21239499747753143 -0.17581099271774292 0.4235740005970001 -0.8886370062828064
          -0.7649739980697632 0.45296499133110046 -0.457861989736557 -0.9054419994354248 0.42266300320625305 0.03913100063800812
          0.635562002658844 0.6044719815254211 0.48028498888015747 0.17907799780368805 0.8115469813346863 -0.5561670064926147
          -0.0649230033159256 0.9928230047225952 -0.10044100135564804
          <InformationKey name="L2_NORM_RANGE" location="vtkDataArray" length="2">
            <Value index="0">
              0.99999940857
            </Value>
            <Value index="1">
              1.0000006296
            </Value>
          </InformationKey>
        </DataArray>
      </PointData>
      <CellData>
      </CellData>
      <Points>
        <DataArray type="Float32" Name="Points" NumberOfComponents="3" format="ascii" RangeMin="0.1632202804479421" RangeMax="0.17486582273151968">
          0.04605900123715401 -0.16184699535369873 0.01724899932742119 0.04694699868559837 -0.1622850000858307 0.015752999112010002
          0.04781299829483032 -0.16185499727725983 0.01660200022161007 0.0458189994096756 -0.16208800673484802 0.016635999083518982
          0.047143999487161636 -0.16117799282073975 0.017455000430345535 0.044895000755786896 -0.16197900474071503 0.0181099995970726
          0.0498570017516613 -0.16255499422550201 0.01539700012654066 0.05016300082206726 -0.1634570062160492 0.013729999773204327
          0.0423940010368824 -0.1617880016565323 0.015568000264465809 0.047793999314308167 -0.16090799868106842 0.01714799925684929
          0.048847001045942307 -0.16137200593948364 0.016445999965071678 0.04251199960708618 -0.16173100471496582 0.01653899997472763
          0.04410000145435333 -0.1621129959821701 0.0176170002669096 0.04439400136470795 -0.16078199446201324 0.01955600082874298
          0.04537300020456314 -0.1597059965133667 0.019447999075055122 0.0441569983959198 -0.1618019938468933 0.018563000485301018
          0.044130999594926834 -0.1612659990787506 0.019206000491976738 0.053033001720905304 -0.16442599892616272 0.013174000196158886
          0.051288001239299774 -0.16235099732875824 0.015443000011146069 0.050415001809597015 -0.16200800240039825 0.015572000294923782
          0.052710000425577164 -0.16441099345684052 0.012590000405907631 0.05003799870610237 -0.16328300535678864 0.011876000091433525
          0.045754000544548035 -0.16199100017547607 0.0117790000513196 0.04161899909377098 -0.16135400533676147 0.012268999591469765
          0.04185599833726883 -0.16157099604606628 0.014422999694943428 0.04794500023126602 -0.15994100272655487 0.01657100021839142
          0.046018000692129135 -0.15901899337768555 0.01874700002372265 0.05047700181603432 -0.161421999335289 0.01496300008147955
          0.048937998712062836 -0.1605370044708252 0.0156870000064373 0.043522000312805176 -0.16144999861717224 0.01862799935042858
          0.04318699985742569 -0.16064299643039703 0.014151999726891518 0.04399000108242035 -0.15960100293159485 0.014515000395476818
          0.04481400176882744 -0.15946300327777863 0.019677000120282173 0.04413200169801712 -0.15906700491905212 0.01926399953663349
          0.04370199888944626 -0.16022799909114838 0.019347000867128372 0.04521000012755394 -0.15853899717330933 0.01896500028669834
          0.05502999946475029 -0.16424299776554108 0.01409399975091219 0.05243900045752525 -0.16262300312519073 0.015273000113666058
          0.05645599961280823 -0.1647779941558838 0.0123070003464818 0.051624998450279236 -0.16200000047683716 0.015297999605536461
          0.05561500042676926 -0.1646440029144287 0.01075000036507845 0.05276000127196312 -0.16387100517749786 0.011251999996602535
          0.05112700164318085 -0.1624000072479248 0.010350000113248825 0.04982399940490723 -0.1626559942960739 0.010870999656617641
          0.048145998269319534 -0.16140100359916687 0.010489000007510185 0.04677300155162811 -0.16088899970054626 0.010240999981760979
          0.04487200081348419 -0.16065099835395813 0.009956000372767448 0.04259800165891647 -0.16064000129699707 0.010127999819815159
          0.04233799874782562 -0.16082599759101868 0.01115499995648861 0.043820999562740326 -0.15980400145053864 0.013629999943077564
          0.04575999826192856 -0.15719300508499146 0.010652000084519386 0.04531199857592583 -0.1576080024242401 0.01755400002002716
          0.050255998969078064 -0.16097299754619598 0.01309099979698658 0.04436599835753441 -0.1583079993724823 0.015162999741733074
          0.04427500069141388 -0.15866999328136444 0.014588999561965466 0.04355200007557869 -0.16016900539398193 0.014154000207781792
          0.04401100054383278 -0.15911200642585754 0.014155999757349491 0.04418199881911278 -0.15853199362754822 0.018823999911546707
          0.04439400136470795 -0.1576559990644455 0.01771399937570095 0.044054001569747925 -0.15755000710487366 0.016824999824166298
          0.05581900104880333 -0.16430099308490753 0.014902999624609947 0.05621799826622009 -0.16472800076007843 0.014041000045835972
          0.05269699916243553 -0.16235099732875824 0.01628899946808815 0.05220299959182739 -0.16225799918174744 0.01566999964416027
          0.05677799880504608 -0.16490299999713898 0.012701000086963177 0.0566370002925396 -0.1648859977722168 0.011799000203609467
          0.05777899920940399 -0.16446000337600708 0.013024999760091305 0.05721699818968773 -0.16467900574207306 0.011714000254869461
          0.05167900025844574 -0.16149500012397766 0.012938999570906162 0.052368998527526855 -0.16168099641799927 0.01461699977517128
          0.052622001618146896 -0.16145800054073334 0.015468999743461609 0.05394100025296211 -0.1635890007019043 0.009530999697744846
          0.056088000535964966 -0.1637219935655594 0.00963400024920702 0.0571650005877018 -0.16428999602794647 0.010722000151872635
          0.05201299861073494 -0.1622689962387085 0.009529000148177147 0.05177899822592735 -0.1626179963350296 0.0103150000795722
          0.05065000057220459 -0.1622530072927475 0.010425999760627747 0.05157899856567383 -0.16212299466133118 0.010076000355184078
          0.05106600001454353 -0.16190199553966522 0.010470000095665455 0.04978000000119209 -0.16202400624752045 0.010590000078082085
          0.04992299899458885 -0.1614300012588501 0.01106599997729063 0.047609999775886536 -0.15974299609661102 0.010329999960958958
          0.04585200175642967 -0.15956099331378937 0.009549999609589577 0.04367600008845329 -0.15939000248908997 0.008825000375509262
          0.04284000024199486 -0.1602800041437149 0.00962700042873621 0.04244399815797806 -0.16048799455165863 0.010692000389099121
          0.043017998337745667 -0.15921199321746826 0.010166999883949757 0.042789001017808914 -0.1601179987192154 0.010800999589264393
          0.04424599930644035 -0.1581680029630661 0.012955999933183193 0.046105001121759415 -0.1582310050725937 0.009726000018417835
          0.045010000467300415 -0.15758800506591797 0.009424000047147274 0.043832000344991684 -0.15726099908351898 0.00977499969303608
          0.04382700100541115 -0.15684400498867035 0.010955000296235085 0.0439159981906414 -0.1569570004940033 0.013647000305354595
          0.04446699842810631 -0.157382994890213 0.01719300076365471 0.04404500126838684 -0.15787899494171143 0.014330999925732613
          0.05656300112605095 -0.16361500322818756 0.015320999547839165 0.05573200061917305 -0.16314800083637238 0.015769999474287033
          0.05692199990153313 -0.16384999454021454 0.015025000087916851 0.0539730004966259 -0.1622619926929474 0.016404999420046806
          0.057464998215436935 -0.16424299776554108 0.01413199957460165 0.05293300002813339 -0.16187100112438202 0.016658000648021698
          0.05242199823260307 -0.1617880016565323 0.016346000134944916 0.05688399821519852 -0.16331599652767181 0.014681000262498856
          0.05760499835014343 -0.16396799683570862 0.01209999993443489 0.056366998702287674 -0.16272899508476257 0.013886000029742718
          0.05293300002813339 -0.16177600622177124 0.012668999843299389 0.0519459992647171 -0.1616629958152771 0.010866999626159668
          0.05283299833536148 -0.1613900065422058 0.016171999275684357 0.05401099845767021 -0.16172300279140472 0.01598300039768219
          0.053677998483181 -0.16248899698257446 0.008813000284135342 0.05304199829697609 -0.16217400133609772 0.008844999596476555
          0.055459000170230865 -0.16273100674152374 0.009569000452756882 0.05256899818778038 -0.16197499632835388 0.009007999673485756
          0.05186200141906738 -0.16178399324417114 0.009324000217020512 0.05210600048303604 -0.16145199537277222 0.010266000404953957
          0.044557999819517136 -0.15871399641036987 0.00880299974232912 0.04298499971628189 -0.15906000137329102 0.008960999548435211
          0.04382399842143059 -0.1588910073041916 0.008725999854505062 0.04387100040912628 -0.15798799693584442 0.011730000376701355
          0.04302699863910675 -0.15815000236034393 0.010150999762117863 0.043345000594854355 -0.15860100090503693 0.008888999931514263
          0.04300500079989433 -0.15809200704097748 0.009286999702453613 0.043216001242399216 -0.15743400156497955 0.010428999550640583
          0.05625800043344498 -0.16283899545669556 0.015205999836325645 0.05318500101566315 -0.16165900230407715 0.009277000091969967
          0.05218999832868576 -0.1613920032978058 0.00976600032299757
          <InformationKey name="L2_NORM_RANGE" location="vtkDataArray" length="2">
            <Value index="0">
              0.16322028045
            </Value>
            <Value index="1">
              0.17486582273
            </Value>
          </InformationKey>
        </DataArray>
      </Points>
      <Verts>
        <DataArray type="Int64" Name="connectivity" format="ascii" RangeMin="1e+299" RangeMax="-1e+299">
        </DataArray>
        <DataArray type="Int64" Name="offsets" format="ascii" RangeMin="1e+299" RangeMax="-1e+299">
        </DataArray>
      </Verts>
      <Lines>
        <DataArray type="Int64" Name="connectivity" format="ascii" RangeMin="1e+299" RangeMax="-1e+299">
        </DataArray>
        <DataArray type="Int64" Name="offsets" format="ascii" RangeMin="1e+299" RangeMax="-1e+299">
        </DataArray>
      </Lines>
      <Strips>
        <DataArray type="Int64" Name="connectivity" format="ascii" RangeMin="1e+299" RangeMax="-1e+299">
        </DataArray>
        <DataArray type="Int64" Name="offsets" format="ascii" RangeMin="1e+299" RangeMax="-1e+299">
        </DataArray>
      </Strips>
      <Polys>
        <DataArray type="Int32" Name="connectivity" format="ascii" RangeMin="0" RangeMax="126">
          0 1 2 3 1 0
          4 5 0 5 3 0
          4 0 2 6 2 1
          7 6 1 7 1 8
          1 3 8 9 4 2
          10 2 6 10 9 2
          11 3 12 8 3 11
          3 5 12 5 4 13
          13 4 14 4 9 14
          15 12 5 16 15 5
          5 13 16 7 17 6
          18 19 6 19 10 6
          17 18 6 20 17 7
          21 7 8 21 20 7
          22 21 8 8 23 22
          23 8 24 11 24 8
          9 10 25 26 9 25
          14 9 26 27 28 10
          27 10 19 28 25 10
          11 12 29 24 11 30
          30 11 31 11 29 31
          12 15 29 32 13 14
          33 34 13 16 13 34
          13 32 33 26 35 14
          32 14 35 16 29 15
          29 16 34 36 37 17
          17 37 18 17 20 38
          36 17 38 37 39 18
          19 18 39 27 19 39
          38 20 40 41 40 20
          21 41 20 41 21 42
          43 42 21 22 43 21
          44 43 22 45 44 22
          46 22 23 45 22 46
          47 46 23 48 47 23
          30 23 24 48 23 49
          23 30 49 25 28 50
          51 25 50 26 25 51
          35 26 51 52 28 27
          39 52 27 50 28 52
          33 29 34 29 33 53
          31 29 54 29 53 54
          49 30 55 31 55 30
          31 56 55 31 54 56
          32 35 33 57 33 35
          57 58 33 59 33 58
          53 33 59 58 57 35
          58 35 51 60 36 61
          61 36 38 62 36 60
          62 37 36 62 63 37
          37 63 39 61 38 64
          40 65 38 66 64 38
          65 67 38 66 38 67
          68 39 69 39 68 52
          39 63 70 69 39 70
          71 72 40 67 65 40
          67 40 73 72 73 40
          71 40 41 71 41 74
          42 75 41 75 74 41
          42 43 76 75 42 77
          76 78 42 77 42 78
          44 79 43 79 76 43
          79 44 80 81 80 44
          44 45 81 45 46 82
          45 82 81 83 46 84
          83 82 46 47 84 46
          48 85 47 84 47 86
          87 47 85 47 87 86
          85 48 87 87 48 49
          49 55 56 88 87 49
          88 49 56 89 50 81
          81 50 52 90 50 89
          50 90 91 50 91 92
          50 92 51 92 93 51
          94 51 93 94 58 51
          80 81 52 80 52 68
          53 59 95 53 95 54
          54 95 56 56 95 88
          58 94 59 94 93 59
          59 93 95 96 97 60
          98 96 60 99 60 97
          98 60 100 60 61 100
          101 62 60 101 60 99
          61 66 100 64 66 61
          62 102 63 101 102 62
          102 70 63 103 100 66
          66 67 104 104 105 66
          66 105 103 67 73 104
          68 78 80 69 106 68
          106 107 68 68 107 78
          70 106 69 102 108 70
          106 70 105 105 70 109
          108 109 70 71 110 72
          71 111 110 71 74 111
          110 112 72 73 72 104
          112 104 72 74 113 111
          74 114 113 74 75 77
          77 114 74 79 78 76
          77 78 115 114 77 115
          79 80 78 78 107 115
          89 81 82 82 116 89
          116 82 83 84 117 83
          83 117 118 83 118 116
          117 84 86 86 87 88
          86 88 119 117 86 120
          119 120 86 88 93 119
          95 93 88 90 89 116
          121 90 116 90 121 91
          121 122 91 123 92 91
          122 123 91 123 93 92
          93 123 119 124 97 96
          98 103 96 103 124 96
          97 124 109 97 109 99
          103 98 100 109 101 99
          108 101 109 102 101 108
          124 103 105 105 104 112
          125 105 112 126 106 105
          109 124 105 125 126 105
          106 115 107 106 126 115
          112 110 125 110 111 125
          113 125 111 114 125 113
          114 126 125 126 114 115
          121 116 118 121 118 117
          117 122 121 120 122 117
          119 123 120 122 120 123
        </DataArray>
        <DataArray type="Int32" Name="offsets" format="ascii" RangeMin="3" RangeMax="750">
          3 6 9 12 15 18
          21 24 27 30 33 36
          39 42 45 48 51 54
          57 60 63 66 69 72
          75 78 81 84 87 90
          93 96 99 102 105 108
          111 114 117 120 123 126
          129 132 135 138 141 144
          147 150 153 156 159 162
          165 168 171 174 177 180
          183 186 189 192 195 198
          201 204 207 210 213 216
          219 222 225 228 231 234
          237 240 243 246 249 252
          255 258 261 264 267 270
          273 276 279 282 285 288
          291 294 297 300 303 306
          309 312 315 318 321 324
          327 330 333 336 339 342
          345 348 351 354 357 360
          363 366 369 372 375 378
          381 384 387 390 393 396
          399 402 405 408 411 414
          417 420 423 426 429 432
          435 438 441 444 447 450
          453 456 459 462 465 468
          471 474 477 480 483 486
          489 492 495 498 501 504
          507 510 513 516 519 522
          525 528 531 534 537 540
          543 546 549 552 555 558
          561 564 567 570 573 576
          579 582 585 588 591 594
          597 600 603 606 609 612
          615 618 621 624 627 630
          633 636 639 642 645 648
          651 654 657 660 663 666
          669 672 675 678 681 684
          687 690 693 696 699 702
          705 708 711 714 717 720
          723 726 729 732 735 738
          741 744 747 750
        </DataArray>
      </Polys>
    </Piece>
  </PolyData>
</VTKFile>
