<?xml version="1.0"?>
<VTKFile type="PolyData" version="0.1" byte_order="LittleEndian" header_type="UInt32" compressor="vtkZLibDataCompressor">
  <PolyData>
    <Piece NumberOfPoints="1458" NumberOfVerts="0" NumberOfLines="0" NumberOfStrips="0" NumberOfPolys="1792">
      <PointData Normals="Normals">
        <DataArray type="Float32" Name="Normals" NumberOfComponents="3" format="ascii" RangeMin="0.9999992130207994" RangeMax="1.000000731191924">
          0.8436689972877502 -0.18699899315834045 0.5032430291175842 0.9040160179138184 -0.17754000425338745 0.38888901472091675
          0.9913039803504944 -0.12377899885177612 -0.04465999826788902 0.8983100056648254 -0.0759119987487793 0.4327540099620819
          0.8663790225982666 -0.3865480124950409 0.31617799401283264 0.845537006855011 -0.4344179928302765 -0.31040099263191223
          0.6519110202789307 -0.23615999519824982 0.7205830216407776 0.6720799803733826 -0.5373160243034363 0.5095080137252808
          0.9067040085792542 -0.31885799765586853 0.27607399225234985 0.920960009098053 -0.38743099570274353 0.04158300161361694
          0.7590370178222656 -0.2799670100212097 -0.5877760052680969 0.8804309964179993 -0.2615619897842407 -0.3955079913139343
          0.9657480120658875 -0.20928800106048584 -0.1533910036087036 0.8573610186576843 -0.46792900562286377 -0.21441799402236938
          0.7457190155982971 -0.6503779888153076 -0.14460499584674835 0.9712430238723755 -0.09808199852705002 -0.216949000954628
          0.7905229926109314 -0.21688100695610046 -0.5727450251579285 0.7041929960250854 -0.6465160250663757 0.2934800088405609
          0.8507230281829834 -0.5225390195846558 -0.056768998503685 0.991894006729126 -0.028322000056505203 -0.12387499958276749
          0.9931139945983887 0.09374900162220001 -0.07025499641895294 0.999055027961731 -0.043115999549627304 0.0055610002018511295
          0.9596700072288513 -0.2792379856109619 0.03255699947476387 0.6763610243797302 0.7344740033149719 0.05552300065755844
          0.3010619878768921 0.9517650008201599 0.05919500067830086 0.6520689725875854 0.4588240087032318 -0.6035609841346741
          0.7037180066108704 0.7100239992141724 -0.02542399987578392 0.9792649745941162 -0.17139700055122375 -0.10799600183963776
          0.8965420126914978 -0.13150900602340698 -0.4229870140552521 0.1362690031528473 0.8523529767990112 -0.5049009919166565
          0.7802749872207642 -0.5095040202140808 0.36273500323295593 0.8917760252952576 -0.36321499943733215 -0.2698360085487366
          0.6863430142402649 -0.38405200839042664 0.617605984210968 0.6661869883537292 0.4158270061016083 0.6190980076789856
          0.7855470180511475 -0.5443909764289856 -0.2942019999027252 0.9797890186309814 -0.16961100697517395 -0.10604599863290787
          0.9950129985809326 -0.0947519987821579 -0.0311489999294281 0.8755149841308594 -0.4683609902858734 0.11879400163888931
          0.7783830165863037 -0.562965989112854 0.27782899141311646 0.7440000176429749 -0.6095799803733826 0.2736339867115021
          0.9503470063209534 -0.16838900744915009 0.26169899106025696 0.9777780175209045 0.2064789980649948 -0.036295000463724136
          0.9836680293083191 0.1650799959897995 -0.07173699885606766 0.9788349866867065 0.20319999754428864 0.02434300072491169
          0.9787830114364624 0.0708789974451065 -0.1922529935836792 -0.5419350266456604 0.8042230010032654 0.24399200081825256
          -0.2737810015678406 0.9497659802436829 -0.1516219973564148 -0.8648350238800049 0.5020530223846436 -0.0014140000566840172
          -0.5109300017356873 0.8236879706382751 -0.24594399333000183 -0.29566100239753723 0.9268990159034729 0.23117700219154358
          0.9341999888420105 -0.22750000655651093 0.2747980058193207 0.9483669996261597 -0.22484800219535828 0.223703995347023
          0.8798589706420898 0.39425501227378845 0.26535001397132874 -0.7532830238342285 0.5874840021133423 0.2956799864768982
          -0.8219889998435974 0.5346500277519226 0.19617299735546112 -0.7105929851531982 0.5191609859466553 0.4748989939689636
          0.8294349908828735 -0.18895700573921204 0.5256739854812622 0.9815139770507812 -0.027972999960184097 0.18933799862861633
          0.8555470108985901 -0.46338701248168945 0.23089399933815002 0.8857880234718323 -0.1803549975156784 0.42761099338531494
          0.9881860017776489 -0.1531360000371933 -0.006095999851822853 0.19488200545310974 0.773239016532898 0.6034259796142578
          0.8896459937095642 -0.43536999821662903 -0.13777700066566467 0.9835630059242249 0.09314599633216858 0.15468600392341614
          0.92364102602005 -0.37520599365234375 -0.07815500348806381 0.9684960246086121 -0.2207449972629547 -0.11527100205421448
          0.7797709703445435 -0.6050189733505249 -0.1609629988670349 0.8918939828872681 -0.352182000875473 -0.2837139964103699
          0.9343820214271545 -0.3497200012207031 -0.06801600009202957 0.9662449955940247 -0.21008999645709991 -0.14910799264907837
          0.9839509725570679 0.10394299775362015 -0.14503799378871918 0.9846100211143494 0.17459100484848022 -0.00784900039434433
          0.9741349816322327 0.18303899466991425 0.13250499963760376 0.9613379836082458 0.05158500000834465 -0.27049800753593445
          0.95831298828125 0.12063100188970566 0.25900599360466003 0.8856030106544495 0.060120001435279846 -0.46053600311279297
          0.9163839817047119 0.03976399824023247 -0.3983210027217865 -0.82157301902771 0.5697960257530212 -0.018704000860452652
          -0.6701880097389221 0.7021309733390808 0.24054299294948578 -0.8264110088348389 0.5427560210227966 -0.14986500144004822
          -0.6998000144958496 0.6616950035095215 -0.26914700865745544 -0.7592219710350037 0.5708940029144287 -0.31251001358032227
          0.9585040211677551 -0.2650910019874573 -0.10486499965190887 0.9847959876060486 0.08087299764156342 -0.15374299883842468
          0.13504600524902344 0.9902529716491699 0.03408600017428398 -0.7369499802589417 0.6316069960594177 0.24078500270843506
          -0.686743974685669 0.43695101141929626 0.5809109807014465 -0.7713130116462708 0.43937501311302185 0.4604629874229431
          -0.7044770121574402 0.6991459727287292 -0.12209200114011765 -0.7484689950942993 0.6329200267791748 -0.1980070024728775
          -0.5334270000457764 0.8449090123176575 -0.03979500010609627 -0.630158007144928 0.7741879820823669 0.05944700166583061
          -0.8110920190811157 0.5548269748687744 0.18519200384616852 0.5052949786186218 0.6603000164031982 -0.5555899739265442
          0.9914900064468384 -0.08861199766397476 0.09536699950695038 0.7854750156402588 -0.6033440232276917 -0.13786299526691437
          0.7966790199279785 -0.5430690050125122 -0.2652899920940399 0.9757360219955444 -0.2003449946641922 -0.08832799643278122
          0.9601730108261108 -0.2064410001039505 -0.18828000128269196 0.9086880087852478 -0.23267699778079987 -0.3466230034828186
          0.9194110035896301 0.33872300386428833 -0.19987699389457703 -0.6938779950141907 0.502439022064209 -0.5158380270004272
          0.9577130079269409 0.06967400014400482 0.2791610062122345 0.9470750093460083 0.06328000128269196 0.3147119879722595
          0.9361410140991211 -0.34953299164772034 0.0382860004901886 0.9236429929733276 -0.37519899010658264 0.0781560018658638
          0.9028329849243164 -0.35804200172424316 0.23811300098896027 0.9070339798927307 -0.1388300061225891 -0.3975130021572113
          0.846572995185852 -0.08858499675989151 -0.5248500108718872 0.854744017124176 -0.4471980035305023 -0.2634890079498291
          0.9346759915351868 -0.22055800259113312 -0.2788110077381134 0.7578369975090027 -0.23048999905586243 -0.6103749871253967
          0.9774240255355835 0.05176199972629547 -0.2048480063676834 0.9987009763717651 -0.05094800144433975 -0.0008190000080503523
          0.9448109865188599 0.07158199697732925 -0.3197009861469269 0.976777970790863 -0.043682001531124115 0.20975300669670105
          0.9459149837493896 0.0644650012254715 0.3179450035095215 0.8777750134468079 0.08482799679040909 -0.47150400280952454
          0.9404410123825073 0.07231999933719635 0.33217498660087585 0.8724709749221802 0.09157299995422363 -0.480008989572525
          0.8691959977149963 -0.008063999935984612 -0.4944010078907013 0.8667089939117432 0.023284999653697014 -0.49827098846435547
          0.9268829822540283 -0.19846999645233154 -0.318587988615036 0.8626390099525452 -0.2585349977016449 -0.4347569942474365
          -0.7806779742240906 0.6077100038528442 -0.14570599794387817 -0.7402899861335754 0.44698598980903625 0.5021700263023376
          -0.721219003200531 0.6344320178031921 0.2780979871749878 -0.5727429986000061 0.7062720060348511 0.4161069989204407
          -0.7793390154838562 0.48325398564338684 -0.39886900782585144 -0.7477099895477295 0.4122850000858307 -0.5205299854278564
          -0.606781005859375 0.6545590162277222 -0.4509649872779846 -0.5785120129585266 0.8155850172042847 0.012070000171661377
          -0.7484909892082214 0.6585059762001038 0.07829699665307999 -0.7608850002288818 0.4259510040283203 -0.4895089864730835
          -0.7149040102958679 0.38389599323272705 -0.5844110250473022 -0.7891259789466858 0.5271589756011963 -0.31525200605392456
          -0.7523429989814758 0.6371579766273499 0.1673640012741089 0.7868260145187378 0.046845000237226486 -0.6153950095176697
          -0.6713230013847351 0.6912959814071655 0.26727598905563354 -0.7204869985580444 0.5801489949226379 0.3799020051956177
          -0.8597429990768433 0.46959200501441956 0.2008109986782074 -0.6893829703330994 0.5990260243415833 0.4073309898376465
          -0.7305560111999512 0.6801900267601013 0.06024299934506416 -0.7155770063400269 0.6856160163879395 0.13371999561786652
          -0.7297999858856201 0.49871501326560974 0.46762698888778687 -0.32319900393486023 0.7352659702301025 0.595757007598877
          0.9254029989242554 0.35837799310684204 -0.12326200306415558 -0.6968700289726257 0.47561898827552795 0.5368040204048157
          0.7833240032196045 -0.5874450206756592 0.20325499773025513 0.963138997554779 -0.20524300634860992 0.173893004655838
          0.9791849851608276 -0.17949700355529785 0.0947519987821579 0.9647549986839294 -0.22165800631046295 0.1418280005455017
          0.9691720008850098 0.04795200005173683 0.24167199432849884 0.16254499554634094 0.9864709973335266 0.02130899950861931
          -0.8309940099716187 0.5239700078964233 -0.18682600557804108 -0.6158980131149292 0.7169970273971558 -0.32647401094436646
          0.5283939838409424 0.8456360101699829 0.07549399882555008 0.9340890049934387 0.07115200161933899 0.34988000988960266
          0.9446070194244385 0.054600998759269714 0.3236309885978699 0.8369020223617554 -0.2027609944343567 0.5084130167961121
          0.8736699819564819 -0.09374099969863892 0.477402001619339 0.910273015499115 -0.06970600038766861 0.4080980122089386
          0.935841977596283 -0.008034000173211098 0.35232800245285034 0.689087986946106 -0.44856199622154236 0.5691660046577454
          0.913407027721405 -0.12439700216054916 -0.3875739872455597 0.9219539761543274 -0.08871299773454666 -0.377003014087677
          0.8964049816131592 -0.37488698959350586 -0.23646800220012665 0.9800829887390137 -0.1590539962053299 -0.11890699714422226
          0.8747400045394897 -0.4751040041446686 -0.0954269990324974 0.9853500127792358 -0.16750599443912506 -0.03206099942326546
          0.9806180000305176 -0.13984699547290802 -0.13722999393939972 0.9628540277481079 -0.2700180113315582 -0.0013099999632686377
          0.9469649791717529 -0.09893900156021118 -0.30572599172592163 0.9563120007514954 -0.25790899991989136 0.1376579999923706
          0.8630980253219604 -0.05078500136733055 -0.5024759769439697 0.9448789954185486 -0.1057090014219284 0.3098840117454529
          0.9024099707603455 -0.043605998158454895 0.42866599559783936 0.8033379912376404 -0.05736599862575531 -0.5927540063858032
          0.8707180023193359 -0.15911400318145752 0.46533098816871643 0.7010020017623901 0.4222809970378876 -0.5746960043907166
          0.8140850067138672 0.0026199999265372753 -0.5807399749755859 0.789152979850769 0.09162700176239014 -0.6073229908943176
          0.8562319874763489 -0.3520990014076233 -0.378013014793396 0.7727810144424438 -0.14794699847698212 -0.6171879768371582
          0.754522979259491 -0.5658069849014282 -0.33250200748443604 0.7782260179519653 -0.6270570158958435 -0.034115999937057495
          -0.7847650051116943 0.6159110069274902 -0.06927099823951721 -0.7801100015640259 0.5867199897766113 -0.2172279953956604
          -0.7264890074729919 0.6838110089302063 0.06795000284910202 -0.5932400226593018 0.689873993396759 -0.41489800810813904
          -0.8018890023231506 0.5554370284080505 -0.22014500200748444 -0.6854590177536011 0.6071580052375793 -0.4018769860267639
          -0.7339980006217957 0.6570500135421753 -0.17184899747371674 -0.6027370095252991 0.5946080088615417 0.532118022441864
          -0.756866991519928 0.6098219752311707 0.23509399592876434 -0.5157510042190552 0.6047130227088928 0.6068969964981079
          -0.8104580044746399 0.5854499936103821 0.020157000049948692 -0.6314989924430847 0.3950980007648468 0.6671630144119263
          -0.6722599864006042 0.3673950135707855 0.6427180171012878 -0.5351539850234985 0.5177289843559265 0.6675080060958862
          0.21139700710773468 0.7130630016326904 0.668470025062561 0.9862499833106995 0.0680679976940155 0.15059199929237366
          0.8810930252075195 0.427280992269516 -0.20274800062179565 -0.615526020526886 0.5325629711151123 0.5809509754180908
          0.8811990022659302 -0.15029600262641907 0.4482179880142212 0.8306840062141418 -0.08892100304365158 0.5495970249176025
          0.751416027545929 -0.16838699579238892 0.6379809975624084 0.777554988861084 0.04898799955844879 0.6269040107727051
          -0.6761760115623474 0.4283660054206848 -0.5994070172309875 -0.718451976776123 0.5184540152549744 -0.46371498703956604
          -0.29617300629615784 0.5952690243721008 -0.7469509840011597 0.8649299740791321 0.4580030143260956 -0.20525600016117096
          0.7827100157737732 0.059053000062704086 0.619579017162323 0.6917740106582642 0.20968900620937347 0.6909989714622498
          0.8751369714736938 -0.24660399556159973 0.41631901264190674 0.7422090172767639 -0.11875300109386444 0.6595640182495117
          0.6520249843597412 -0.5035229921340942 0.5668590068817139 0.7470849752426147 -0.5485020279884338 0.3755120038986206
          0.7818689942359924 -0.6185070276260376 0.07829900085926056 0.7730140089988708 -0.20465099811553955 0.6004729866981506
          0.9004780054092407 -0.1510390043258667 0.40783199667930603 0.7800379991531372 -0.4444440007209778 0.4404659867286682
          0.8845829963684082 -0.1126750037074089 0.452567994594574 0.9698399901390076 -0.1514579951763153 0.1909720003604889
          0.9459840059280396 -0.19715599715709686 0.2573789954185486 0.9592900276184082 -0.10302399843931198 -0.2629629969596863
          0.7600679993629456 -0.26940199732780457 -0.5913709998130798 0.6823199987411499 0.14935000240802765 -0.7156360149383545
          0.81324702501297 -0.5818160176277161 -0.01092199981212616 0.860164999961853 -0.5100079774856567 -0.0029619999695569277
          0.7647920250892639 -0.6030979752540588 -0.2266409993171692 0.8648350238800049 -0.5013920068740845 0.025808999314904213
          0.7299889922142029 -0.42862001061439514 -0.5323539972305298 0.8169289827346802 -0.5210509896278381 0.2472510039806366
          0.6722149848937988 -0.3091529905796051 -0.6727190017700195 0.7327439785003662 -0.42607301473617554 0.530610978603363
          0.719884991645813 -0.34041300415992737 0.6048840284347534 0.6308339834213257 -0.3293670117855072 -0.7025420069694519
          0.6632680296897888 -0.3159619867801666 0.6784120202064514 0.7054139971733093 0.307125985622406 -0.6388000249862671
          0.5953670144081116 0.24055999517440796 -0.7665960192680359 0.6181660294532776 -0.38605499267578125 -0.6847130060195923
          0.6736689805984497 -0.19674800336360931 -0.7123619914054871 0.7155010104179382 -0.1628430038690567 -0.6793680191040039
          0.7367560267448425 -0.6139510273933411 -0.2832930088043213 0.5230590105056763 -0.3391279876232147 -0.7819219827651978
          0.586322009563446 -0.36302998661994934 -0.7241799831390381 -0.7811970114707947 0.6159250140190125 -0.10181699693202972
          -0.6948729753494263 0.5938959717750549 -0.4055100083351135 -0.6037669777870178 0.52360600233078 -0.6010839939117432
          -0.8238430023193359 0.3095279932022095 0.47484099864959717 -0.9162470102310181 0.33160099387168884 0.22479300200939178
          -0.5063509941101074 0.5599390268325806 0.6558020114898682 -0.72017902135849 0.2892560064792633 0.6306130290031433
          -0.9461749792098999 0.3235810101032257 0.006874999962747097 -0.9264140129089355 0.30921098589897156 -0.21481600403785706
          -0.7467129826545715 0.4708690047264099 0.4697900116443634 -0.7858200073242188 0.4247550070285797 0.4495219886302948
          -0.5761100053787231 0.8134649991989136 0.07981900125741959 -0.6436160206794739 0.5486379861831665 0.533623993396759
          0.46116599440574646 0.8770110011100769 -0.13482800126075745 0.003082999959588051 0.9193519949913025 -0.3934229910373688
          0.9462389945983887 0.0100509999319911 -0.32331299781799316 0.5883539915084839 0.37752100825309753 -0.7150650024414062
          0.8699399828910828 -0.044185999780893326 0.49117499589920044 0.9850590229034424 -0.13241499662399292 0.11011099815368652
          -0.6733139753341675 0.5130969882011414 -0.53233402967453 -0.6399080157279968 0.35624200105667114 -0.6808890104293823
          -0.6328809857368469 0.38720399141311646 -0.6704739928245544 -0.5167179703712463 0.4705269932746887 -0.71526700258255
          0.18737399578094482 0.6787409782409668 -0.7100719809532166 0.9830710291862488 0.1096699982881546 -0.14677800238132477
          0.8636379837989807 0.4595150053501129 0.2073020040988922 0.6397780179977417 -0.4420439898967743 0.6287140250205994
          0.43703600764274597 0.059776999056339264 0.8974559903144836 0.7090790271759033 -0.3367629945278168 0.6195150017738342
          0.6113489866256714 0.09149300307035446 0.7860540151596069 0.5600969791412354 -0.3559969961643219 0.7480360269546509
          0.7537569999694824 -0.6092299818992615 0.24635100364685059 0.6283479928970337 -0.16806699335575104 0.7595610022544861
          0.7550539970397949 -0.3434840142726898 0.5584909915924072 0.5805919766426086 -0.3072749972343445 0.7539860010147095
          0.9912610054016113 -0.12130799889564514 -0.05183099955320358 0.9336230158805847 -0.1960279941558838 0.29986900091171265
          0.651498019695282 0.11903700232505798 0.74925297498703 0.907899022102356 -0.29131200909614563 -0.3014239966869354
          0.37801098823547363 -0.10234300047159195 -0.9201269745826721 0.6991310119628906 0.06482899934053421 -0.7120479941368103
          0.6413699984550476 -0.045882999897003174 -0.7658590078353882 0.9592559933662415 -0.059661999344825745 -0.27616700530052185
          0.44617700576782227 -0.8949400186538696 -0.0027989998925477266 0.5403620004653931 -0.8414289951324463 -0.0023590000346302986
          0.359622985124588 -0.9226629734039307 -0.13915400207042694 0.5431910157203674 -0.839260995388031 0.024167999625205994
          0.4095030128955841 -0.7999669909477234 -0.4385890066623688 0.4680910110473633 -0.8661389946937561 0.17519700527191162
          0.4172370135784149 -0.6654329895973206 -0.6189600229263306 0.37930798530578613 -0.8245720267295837 0.4197689890861511
          0.33626800775527954 -0.6652190089225769 -0.666638970375061 0.3880020081996918 -0.6968770027160645 0.6031720042228699
          0.3972890079021454 -0.6045250296592712 0.6904429793357849 0.21950499713420868 -0.7089170217514038 -0.6702650189399719
          0.3228060007095337 -0.620041012763977 0.7150850296020508 0.8627949953079224 0.0680529996752739 -0.5009520053863525
          0.8186450004577637 -0.0388760007917881 -0.5729830265045166 0.6967329978942871 -0.2265239953994751 -0.6806240081787109
          0.6506919860839844 -0.27673500776290894 -0.7071189880371094 0.7025579810142517 0.032395001500844955 -0.7108889818191528
          0.6503040194511414 -0.349808007478714 -0.674344003200531 0.5565379858016968 -0.17261099815368652 -0.8126940131187439
          0.49738800525665283 -0.49854201078414917 -0.7099720239639282 0.8684840202331543 -0.2256540060043335 -0.44137999415397644
          0.09441599994897842 -0.780614972114563 -0.6178399920463562 -0.8414450287818909 0.286965012550354 -0.457845002412796
          -0.755620002746582 0.26037201285362244 -0.6010370254516602 -0.6362149715423584 0.5332310199737549 -0.5575799942016602
          -0.9381240010261536 -0.11100000143051147 0.32802799344062805 -0.9763090014457703 -0.1789270043373108 0.12167900055646896
          -0.8590239882469177 -0.04282499849796295 0.5101420283317566 -0.9694210290908813 -0.24517400562763214 0.010583999566733837
          -0.45878198742866516 0.5933780074119568 0.6613789796829224 -0.6526839733123779 0.36979401111602783 0.6612529754638672
          -0.38919299840927124 0.594215989112854 0.70387202501297 -0.7230010032653809 0.0427669994533062 0.6895220279693604
          -0.9651250243186951 -0.23870299756526947 -0.10748700052499771 -0.9353430271148682 -0.17292000353336334 -0.3085959851741791
          0.2840369939804077 0.8881250023841858 0.36132699251174927 -0.3023810088634491 0.24324500560760498 0.9216279983520508
          0.2239760011434555 0.9365440011024475 0.26966598629951477 0.04388799890875816 0.7791590094566345 -0.6252880096435547
          0.5815610289573669 0.05088600143790245 -0.811909019947052 0.7921509742736816 -0.023801999166607857 -0.6098610162734985
          0.962444007396698 -0.20288099348545074 -0.1803939938545227 -0.6226570010185242 0.6163309812545776 -0.4821139872074127
          -0.7395809888839722 0.4577060043811798 -0.49348199367523193 -0.7420089840888977 0.4178059995174408 -0.5242710113525391
          -0.5860260128974915 0.7889119982719421 -0.18490800261497498 0.013849000446498394 0.9459149837493896 0.3241179883480072
          0.5220350027084351 0.8526809811592102 -0.020357999950647354 0.9487839937210083 0.02893899939954281 0.3145959973335266
          0.5883409976959229 0.37752899527549744 0.7150710225105286 0.6215260028839111 -0.4327850043773651 0.6529949903488159
          0.8192999958992004 0.07352499663829803 0.5686320066452026 0.7307900190353394 -0.17742399871349335 0.6591410040855408
          0.8263980150222778 0.29088500142097473 0.4821319878101349 0.6163359880447388 -0.47617799043655396 0.6272040009498596
          0.5359789729118347 -0.29826900362968445 0.7897859811782837 0.653685986995697 -0.18520799279212952 0.7337530255317688
          0.6965829730033875 0.08876899629831314 0.7119640111923218 0.8723679780960083 -0.23068399727344513 0.4309990108013153
          0.585312008857727 -0.3633340001106262 0.7248439788818359 0.21274599432945251 -0.7010899782180786 0.6805970072746277
          0.9020209908485413 -0.29246601462364197 0.3175230026245117 0.3812969923019409 -0.10327599942684174 0.9186660051345825
          0.5836279988288879 0.027515999972820282 0.811555027961731 0.9477490186691284 -0.027372999116778374 0.31784000992774963
          0.9469559788703918 -0.31991198658943176 -0.030491000041365623 0.6958039999008179 -0.2201099991798401 -0.6836730241775513
          0.7203750014305115 -0.17193999886512756 -0.6719340085983276 0.7499009966850281 -0.2350970059633255 -0.6183670163154602
          0.4412739872932434 -0.8943399786949158 -0.07371199876070023 0.22786100208759308 -0.9736859798431396 -0.003973999992012978
          0.3395540118217468 -0.9248980283737183 -0.17107300460338593 0.22179800271987915 -0.9737439751625061 0.051270000636577606
          0.0946120023727417 -0.9647859930992126 -0.24542999267578125 0.4148080050945282 -0.8809409737586975 0.22776499390602112
          0.0001140000022132881 -0.9423570036888123 -0.3346079885959625 0.28191500902175903 -0.8914300203323364 0.35479000210762024
          -0.14380399882793427 -0.9226149916648865 -0.3579150140285492 0.03137899935245514 -0.930042028427124 0.36611101031303406
          -0.21328000724315643 -0.8759880065917969 -0.4326150119304657 -0.07490699738264084 -0.9013190269470215 0.4266290068626404
          -0.1964460015296936 -0.8869140148162842 0.41808199882507324 -0.2703759968280792 -0.8962050080299377 -0.35172998905181885
          -0.20280399918556213 -0.8769649863243103 0.43566399812698364 0.7952309846878052 -0.17416700720787048 -0.5807530283927917
          0.7965689897537231 -0.15687499940395355 -0.5838389992713928 0.6325740218162537 -0.3298270106315613 -0.700760006904602
          0.7290409803390503 -0.17214100062847137 -0.6624699831008911 0.3366270065307617 -0.6204050183296204 -0.7083650231361389
          0.6899279952049255 0.05461199954152107 -0.7218149900436401 0.5678719878196716 -0.011560999788343906 -0.8230360150337219
          0.34893599152565 0.08667899668216705 -0.9331290125846863 0.6744359731674194 0.12677699327468872 -0.7273679971694946
          0.5833479762077332 -0.1361519992351532 -0.800728976726532 -0.017190000042319298 -0.7923150062561035 -0.6098700165748596
          -0.39849498867988586 -0.8951830267906189 -0.1996220052242279 -0.8716049790382385 -0.12000399827957153 -0.47529399394989014
          -0.775983989238739 -0.061340998858213425 -0.6277629733085632 -0.7031189799308777 0.31929200887680054 -0.6353549957275391
          -0.4749610126018524 0.5970460176467896 -0.6464890241622925 -0.41811200976371765 0.596638023853302 -0.6849859952926636
          -0.7995049953460693 -0.5118539929389954 0.31431901454925537 -0.7937600016593933 -0.598688006401062 0.10731799900531769
          -0.7477099895477295 -0.4194130003452301 0.5148029923439026 -0.7420459985733032 -0.6686099767684937 0.04825500026345253
          -0.7267720103263855 -0.3337709903717041 0.6003329753875732 -0.7755240201950073 -0.6283360123634338 -0.061285000294446945
          -0.43195000290870667 0.4732219874858856 0.7677760124206543 -0.5623440146446228 0.38457798957824707 0.732030987739563
          -0.3047960102558136 0.5813949704170227 0.7543740272521973 -0.2309350073337555 0.47995299100875854 0.8463529944419861
          -0.5830960273742676 0.07614199817180634 0.8088279962539673 -0.3138760030269623 0.332161009311676 0.8894670009613037
          -0.7268750071525574 -0.31075000762939453 0.6124439835548401 -0.7865989804267883 -0.5599979758262634 -0.26012399792671204
          -0.7652530074119568 -0.48965099453926086 -0.41788598895072937 -0.18542799353599548 0.3709689974784851 0.9099439978599548
          0.22182400524616241 0.9407789707183838 0.2563779950141907 0.09965100139379501 0.9303420186042786 0.35289299488067627
          -0.32069599628448486 -0.009736999869346619 0.9471319913864136 0.7073100209236145 0.6464380025863647 0.28606200218200684
          0.04842200130224228 0.7936630249023438 0.6064280271530151 0.9987919926643372 0.04458500072360039 -0.020653000101447105
          -0.2817409932613373 0.22854800522327423 -0.9318730235099792 0.2960369884967804 0.8617669939994812 -0.41197100281715393
          0.22037699818611145 0.9343940019607544 -0.27989500761032104 0.0416329987347126 0.7871389985084534 0.6153690218925476
          0.5945490002632141 0.08140099793672562 0.7999280095100403 0.7849689722061157 -0.024802999570965767 0.6190379858016968
          0.6639410257339478 -0.2640869915485382 0.6995999813079834 0.8187990188598633 -0.09003300219774246 0.5669770240783691
          0.6783689856529236 0.0025220001116394997 0.7347170114517212 0.8400639891624451 0.03903599828481674 0.5410810112953186
          0.5570200085639954 -0.041329000145196915 0.8294699788093567 0.689723014831543 -0.19017499685287476 0.698652982711792
          0.7168390154838562 -0.23506300151348114 0.6564199924468994 0.37828299403190613 0.07161299884319305 0.9229159951210022
          0.6744359731674194 0.12677699327468872 0.7273679971694946 0.590857982635498 -0.10788299888372421 0.799530029296875
          0.4965530037879944 -0.4106389880180359 0.7647290229797363 0.7183240056037903 -0.1825760006904602 0.6713250279426575
          0.08581399917602539 -0.7158250212669373 0.692986011505127 -0.2876409888267517 -0.8760309815406799 0.3870829939842224
          0.954380989074707 -0.2915570139884949 0.06442800164222717 0.746275007724762 -0.20753300189971924 0.632457971572876
          0.7703189849853516 0.17958800494670868 -0.6118469834327698 0.12471000105142593 0.10204999893903732 -0.9869310259819031
          0.04044799879193306 -0.0033990000374615192 -0.999176025390625 0.05700499936938286 0.35431599617004395 -0.9333869814872742
          -0.05400000140070915 -0.9985340237617493 0.003776000114157796 -0.22496800124645233 -0.9733849763870239 0.0437140017747879
          -0.15797899663448334 -0.9868940114974976 0.032912999391555786 -0.2842569947242737 -0.9586809873580933 0.011342000216245651
          -0.374085009098053 -0.91703200340271 0.13824999332427979 -0.1294260025024414 -0.9895439743995667 0.0636570006608963
          -0.4958850145339966 -0.8487650156021118 0.18356500566005707 -0.23322099447250366 -0.9709399938583374 0.053690001368522644
          -0.615211009979248 -0.7700319886207581 0.16901500523090363 -0.46613800525665283 -0.8803499937057495 -0.08774299919605255
          -0.6027309894561768 -0.7967900037765503 0.042913999408483505 -0.5602710247039795 -0.813431978225708 -0.15628300607204437
          -0.5455949902534485 -0.8282920122146606 0.12751099467277527 -0.576740026473999 -0.7943580150604248 -0.1906989961862564
          -0.5123519897460938 -0.8562589883804321 -0.06569500267505646 -0.5974529981613159 -0.7526959776878357 0.2765839993953705
          -0.559283971786499 -0.8246359825134277 -0.08471599966287613 0.6849790215492249 -0.16560499370098114 -0.709492027759552
          0.7076429724693298 -0.03775700181722641 -0.705560028553009 0.5124509930610657 -0.3945299983024597 -0.7627189755439758