<?xml version="1.0"?>
<VTKFile type="PolyData" version="0.1" byte_order="LittleEndian" header_type="UInt32" compressor="vtkZLibDataCompressor">
  <PolyData>
    <Piece NumberOfPoints="958" NumberOfVerts="0" NumberOfLines="0" NumberOfStrips="0" NumberOfPolys="1070">
      <PointData Normals="Normals">
        <DataArray type="Float32" Name="Normals" NumberOfComponents="3" format="ascii" RangeMin="0.9999992023299138" RangeMax="1.000000701951127">
          0.9544079899787903 -0.1930360049009323 -0.22768999636173248 0.606332004070282 0.019656000658869743 -0.7949690222740173
          0.5532060265541077 0.6241300106048584 -0.5517470240592957 0.5203819870948792 0.82293301820755 -0.2279990017414093
          0.5473390221595764 0.8367599844932556 0.015923000872135162 0.6770089864730835 0.685342013835907 0.2682630121707916
          0.8746809959411621 0.0002530000056140125 0.4846999943256378 0.6814600229263306 -0.672307014465332 0.2891620099544525
          0.5346429944038391 -0.8447449803352356 0.023729000240564346 0.5002930164337158 -0.831417977809906 -0.24176600575447083
          0.5418329834938049 -0.6010280251502991 -0.5875229835510254 -0.5368409752845764 -0.3358370065689087 -0.7739610075950623
          -0.28399500250816345 0.7553529739379883 -0.5905830264091492 -0.5482339859008789 -0.7163580060005188 -0.4315899908542633
          -0.02542700059711933 0.9835389852523804 -0.17889800667762756 0.11233200132846832 0.9728109836578369 0.2025350034236908
          0.22476500272750854 0.6549800038337708 0.7214440107345581 0.19247199594974518 -0.047109998762607574 0.9801710247993469
          0.008465000428259373 -0.6236259937286377 0.7816770076751709 -0.28912198543548584 -0.9088810086250305 0.3005729913711548
          -0.5305920243263245 -0.847117006778717 -0.02940399944782257 -0.483720988035202 -0.5128700137138367 -0.7092099785804749
          -0.1624400019645691 0.5384989976882935 -0.8268200159072876 -0.6193810105323792 -0.7222359776496887 -0.3078019917011261
          0.15451699495315552 0.949612021446228 -0.272691011428833 -0.6175979971885681 -0.7860950231552124 0.0250450000166893
          0.376679003238678 0.8898929953575134 0.25730100274086 0.4169909954071045 0.02638700045645237 0.9085279703140259
          0.009623000398278236 -0.18225200474262238 0.9832050204277039 -0.21644000709056854 -0.1713789999485016 0.961135983467102
          -0.4053030014038086 -0.79032301902771 0.4594759941101074 0.4301289916038513 0.08201300352811813 -0.8990340232849121
          0.3058379888534546 0.7956470251083374 -0.5228850245475769 0.3926999866962433 -0.6733660101890564 -0.6263899803161621
          0.19781899452209473 0.9682899713516235 -0.1525849997997284 0.3644239902496338 -0.9013689756393433 -0.23394399881362915
          0.20004799962043762 0.9445970058441162 0.2602269947528839 0.4849660098552704 -0.8316149711608887 0.27059999108314514
          0.3987399935722351 0.4315199851989746 0.8091949820518494 0.5150359869003296 0.20061999559402466 0.8333600163459778
          0.6329140067100525 -0.10312099754810333 0.7673239707946777 -0.24574899673461914 0.2051289975643158 -0.947380006313324
          -0.25289100408554077 0.8820620179176331 -0.39750900864601135 -0.07358100265264511 -0.7634980082511902 -0.641605019569397
          -0.05598499998450279 0.9784579873085022 -0.19870899617671967 0.014666000381112099 -0.9807459712028503 -0.19473500549793243
          0.8925840258598328 0.45049500465393066 -0.01864900067448616 0.13342300057411194 -0.9467269778251648 0.29309698939323425
          0.3029020130634308 0.3465139865875244 0.887794017791748 0.3140619993209839 -0.36649298667907715 0.8758130073547363
          0.22269800305366516 0.22352300584316254 0.9489169716835022 -0.9866039752960205 0.005185999907553196 -0.16305099427700043
          -0.9450749754905701 0.3157539963722229 -0.0844539999961853 -0.9471650123596191 -0.3082379996776581 -0.0887020006775856
          -0.9976549744606018 -0.06195100024342537 0.029083000496029854 -0.8904280066490173 -0.44959500432014465 0.07073500007390976
          -0.4435949921607971 -0.8761739730834961 -0.18852999806404114 -0.8526380062103271 -0.4398350119590759 0.2820509970188141
          -0.8608520030975342 -0.3390589952468872 0.37943699955940247 -0.8210539817810059 -0.20826299488544464 0.5315039753913879
          -0.75593501329422 0.00887299980968237 0.6545860171318054 -0.9882590174674988 -0.0009599999757483602 0.15278799831867218
          0.9545249938964844 -0.1925240010023117 -0.22763000428676605 0.6062939763069153 0.019905000925064087 -0.7949920296669006
          0.5529999732971191 0.6244959831237793 -0.5515390038490295 0.5200690031051636 0.8231319785118103 -0.22799399495124817
          0.5472559928894043 0.8368149995803833 0.015863999724388123 0.6770550012588501 0.6852459907531738 0.26839300990104675
          0.8746899962425232 0.0008730000117793679 0.48468199372291565 0.6818670034408569 -0.671887993812561 0.2891789972782135
          0.5346599817276001 -0.8447409868240356 0.02348499931395054 0.5002850294113159 -0.8313919901847839 -0.24187099933624268
          0.5418769717216492 -0.6008890271186829 -0.5876230001449585 -0.5371140241622925 -0.3355560004711151 -0.7738929986953735
          -0.28404700756073 0.7551429867744446 -0.5908269882202148 -0.5482339859008789 -0.7161309719085693 -0.43196800351142883
          -0.02530200034379959 0.983493983745575 -0.1791660040616989 0.11253400146961212 0.9727280139923096 0.20282100141048431
          0.2248380035161972 0.654587984085083 0.7217770218849182 0.19255800545215607 -0.04686500132083893 0.9801660180091858
          0.00855099968612194 -0.6237090229988098 0.7816100120544434 -0.28930899500846863 -0.9088699817657471 0.30042698979377747
          -0.5308340191841125 -0.8469589948654175 -0.029590999707579613 -0.4840709865093231 -0.512703001499176 -0.7090920209884644
          -0.1629440039396286 0.5383679866790771 -0.8268060088157654 -0.619458019733429 -0.7220330238342285 -0.30812299251556396
          0.15424199402332306 0.949633002281189 -0.2727760076522827 -0.6178789734840393 -0.7858819961547852 0.024819999933242798
          0.37654998898506165 0.8897989988327026 0.2578130066394806 0.41679099202156067 0.026405999436974525 0.9086189866065979
          0.009770000353455544 -0.18219299614429474 0.9832140207290649 -0.2164900004863739 -0.1717360019683838 0.9610610008239746
          -0.40550100803375244 -0.7901920080184937 0.459526002407074 0.4299739897251129 0.08195699751377106 -0.8991140127182007
          0.3056269884109497 0.7956709861755371 -0.5229719877243042 0.39264199137687683 -0.6732190251350403 -0.6265850067138672
          0.19776299595832825 0.9682930111885071 -0.15263600647449493 0.36451399326324463 -0.9012690186500549 -0.2341890037059784
          0.2002590000629425 0.9444890022277832 0.260453999042511 0.4850099980831146 -0.8316010236740112 0.2705639898777008
          0.39917001128196716 0.431441992521286 0.80902498960495 0.5153390169143677 0.20079000294208527 0.8331320285797119
          0.6329429745674133 -0.10303500294685364 0.7673119902610779 -0.24582800269126892 0.20511099696159363 -0.9473639726638794
          -0.25262799859046936 0.8821179866790771 -0.3975510001182556 -0.0736050009727478 -0.7635220289230347 -0.6415730118751526
          -0.060679998248815536 0.9781590104103088 -0.19880500435829163 0.014764999970793724 -0.9807029962539673 -0.19494399428367615
          0.8956009745597839 0.44430699944496155 -0.022143999114632607 0.13337600231170654 -0.9467669725418091 0.2929899990558624
          0.29796698689460754 0.34469398856163025 0.8901690244674683 0.3141239881515503 -0.36645200848579407 0.8758080005645752
          0.2225160002708435 0.22390900552272797 0.948868989944458 -0.9866219758987427 0.00495600001886487 -0.16294600069522858
          -0.9449779987335205 0.3160179853439331 -0.08455000072717667 -0.9470909833908081 -0.30850398540496826 -0.08856700360774994
          -0.9974089860916138 -0.06543900072574615 0.029884999617934227 -0.8904079794883728 -0.4496630132198334 0.07054200023412704
          -0.4505620002746582 -0.8729569911956787 -0.1869249939918518 -0.8527160286903381 -0.43984100222587585 0.28180599212646484
          -0.8625900149345398 -0.34002700448036194 0.37459298968315125 -0.8210269808769226 -0.2083279937505722 0.5315210223197937
          -0.7560080289840698 0.009468999691307545 0.6544939875602722 -0.9882590174674988 -0.0008720000041648746 0.1527860015630722
          0.9544339776039124 -0.1928499937057495 -0.22774000465869904 0.6063240170478821 0.01975099928677082 -0.7949730157852173
          0.5528820157051086 0.6244540214538574 -0.551705002784729 0.5202010273933411 0.8229600191116333 -0.22831599414348602
          0.5472699999809265 0.836804986000061 0.015890000388026237 0.6769239902496338 0.6854590177536011 0.26817798614501953
          0.8747140169143677 0.00015900000289548188 0.4846389889717102 0.6811789870262146 -0.6726139783859253 0.2891109883785248
          0.5346019864082336 -0.8447679877281189 0.023804999887943268 0.500229001045227 -0.8314459919929504 -0.24180300533771515
          0.5416039824485779 -0.6013169884681702 -0.5874369740486145 -0.5371279716491699 -0.3359149992465973 -0.7737280130386353
          -0.28391900658607483 0.755420982837677 -0.5905320048332214 -0.5481550097465515 -0.7166140079498291 -0.43126699328422546
          -0.025227999314665794 0.9835330247879028 -0.178957998752594 0.1124430000782013 0.9728209972381592 0.20242400467395782
          0.2251420021057129 0.6550210118293762 0.7212889790534973 0.19254200160503387 -0.04749400168657303 0.9801390171051025
          0.008307999931275845 -0.623894989490509 0.7814639806747437 -0.2890999913215637 -0.9089069962501526 0.3005160093307495
          -0.5307019948959351 -0.8470550179481506 -0.02920999936759472 -0.48377400636672974 -0.5126090049743652 -0.7093619704246521
          -0.16257700324058533 0.5387589931488037 -0.8266239762306213 -0.619297981262207 -0.7222560048103333 -0.30792000889778137
          0.1543159931898117 0.9496870040893555 -0.27254700660705566 -0.6176869869232178 -0.7860220074653625 0.025148000568151474
          0.37637999653816223 0.8900189995765686 0.25730299949645996 0.4171159863471985 0.02613000012934208 0.9084780216217041
          0.009650000371038914 -0.18272900581359863 0.9831159710884094 -0.21647599339485168 -0.1715950071811676 0.9610900282859802
          -0.4053249955177307 -0.7903050184249878 0.4594869911670685 0.4302099943161011 0.08208099752664566 -0.8989899754524231
          0.3058300018310547 0.795619010925293 -0.5229319930076599 0.3926999866962433 -0.6732349991798401 -0.6265310049057007
          0.19774499535560608 0.9682980179786682 -0.15262700617313385 0.364327996969223 -0.9013789892196655 -0.23405300080776215
          0.20017500221729279 0.9445379972457886 0.260342001914978 0.48490598797798157 -0.8316739797592163 0.2705270051956177
          0.3988359868526459 0.4315739870071411 0.8091189861297607 0.5151960253715515 0.20048299431800842 0.8332949876785278
          0.6329889893531799 -0.10339599847793579 0.7672250270843506 -0.2459000051021576 0.20526400208473206 -0.9473119974136353
          -0.2532700002193451 0.8819969892501831 -0.3974120020866394 -0.07366199791431427 -0.763392984867096 -0.6417210102081299
          -0.062029000371694565 0.9781460165977478 -0.1984490007162094 0.014519000425934792 -0.9807530045509338 -0.19471299648284912
          0.8953400254249573 0.4450089931488037 -0.01825300045311451 0.13323700428009033 -0.9467380046844482 0.293148010969162
          0.3012790083885193 0.34481900930404663 0.8890050053596497 0.3138589859008789 -0.3665989935398102 0.8758410215377808
          0.22280199825763702 0.2232930064201355 0.9489459991455078 -0.9866160154342651 0.005266000051051378 -0.16297799348831177
          -0.945160984992981 0.31556200981140137 -0.08420400321483612 -0.947206974029541 -0.3080810010433197 -0.0887949988245964
          -0.9973459839820862 -0.06630100309848785 0.03009600006043911 -0.8904690146446228 -0.44950899481773376 0.07076100260019302
          -0.4488289952278137 -0.87397700548172 -0.18632599711418152 -0.8526899814605713 -0.43967801332473755 0.2821410000324249
          -0.8611770272254944 -0.3407230079174042 0.37720298767089844 -0.8211510181427002 -0.20834699273109436 0.5313209891319275
          -0.7559859752655029 0.008527999743819237 0.6545330286026001 -0.988273024559021 -0.0008980000275187194 0.1526930034160614
          0.9544579982757568 -0.1927410066127777 -0.22773000597953796 0.6062890291213989 0.020239999517798424 -0.7949870228767395
          0.5528820157051086 0.6244540214538574 -0.551705002784729 0.5202010273933411 0.8229600191116333 -0.22831599414348602
          0.5472779870033264 0.8367990255355835 0.01592399924993515 0.6769310235977173 0.6853939890861511 0.268326997756958
          0.8746410012245178 0.000029999999242136255 0.4847710132598877 0.6811609864234924 -0.6726199984550476 0.2891390025615692
          0.5346189737319946 -0.8447579741477966 0.023802999407052994 0.5003020167350769 -0.8314020037651062 -0.24180500209331512
          0.5418030023574829 -0.6009160280227661 -0.587664008140564 -0.5371649861335754 -0.3354890048503876 -0.7738869786262512
          -0.28401699662208557 0.7552329897880554 -0.5907260179519653 -0.5482940077781677 -0.7164409756660461 -0.43137699365615845
          -0.025276999920606613 0.983506977558136 -0.17909400165081024 0.11243599653244019 0.9727609753608704 0.20271499454975128
          0.22468900680541992 0.6548280119895935 0.7216060161590576 0.19228799641132355 -0.0471699982881546 0.9802039861679077
          0.008364000357687473 -0.6239510178565979 0.7814180254936218 -0.2891640067100525 -0.9088910222053528 0.3005009889602661
          -0.5306919813156128 -0.8470640182495117 -0.029131000861525536 -0.48407799005508423 -0.5126299858093262 -0.7091400027275085
          -0.16262200474739075 0.5389009714126587 -0.8265230059623718 -0.6193820238113403 -0.7223759889602661 -0.30747199058532715
          0.1543480008840561 0.9496350288391113 -0.2727090120315552 -0.6177510023117065 -0.7859690189361572 0.025226999074220657
          0.376446008682251 0.8898990154266357 0.2576200067996979 0.41676801443099976 0.026544999331235886 0.9086250066757202
          0.009602000005543232 -0.18228399753570557 0.9831990003585815 -0.2166929990053177 -0.17177699506282806 0.9610080122947693
          -0.4055269956588745 -0.7902219891548157 0.4594529867172241 0.43019500374794006 0.08205100148916245 -0.8989989757537842
          0.30577200651168823 0.7957220077514648 -0.5228090286254883 0.39257198572158813 -0.6734369993209839 -0.6263939738273621
          0.1978680044412613 0.9682689905166626 -0.1526540070772171 0.36437100172042847 -0.9013509750366211 -0.23409199714660645
          0.20014800131320953 0.9445459842681885 0.2603349983692169 0.484824001789093 -0.8317149877548218 0.2705470025539398
          0.39886999130249023 0.43166500329971313 0.8090530037879944 0.5151349902153015 0.20081199705600739 0.833253026008606
          0.6328330039978027 -0.10318399965763092 0.767382025718689 -0.24584800004959106 0.2050279974937439 -0.947376012802124
          -0.2532249987125397 0.8819260001182556 -0.39759698510169983 -0.07346600294113159 -0.7633579969406128 -0.6417850255966187
          -0.06127399951219559 0.9781879782676697 -0.19847799837589264 0.014689999632537365 -0.9807379841804504 -0.19477400183677673
          0.893887996673584 0.44806599617004395 -0.014190999791026115 0.13319900631904602 -0.9467769861221313 0.2930369973182678
          0.30517399311065674 0.3477360010147095 0.886538028717041 0.3140319883823395 -0.36629900336265564 0.8759049773216248
          0.2228260040283203 0.22391599416732788 0.9487940073013306 -0.986598014831543 0.005274000111967325 -0.1630840003490448
          -0.9451469779014587 0.3155739903450012 -0.08432400226593018 -0.9472010135650635 -0.30809900164604187 -0.08879899978637695
          -0.9973769783973694 -0.06587900221347809 0.029986999928951263 -0.8904619812965393 -0.44951701164245605 0.07079199701547623
          -0.44525399804115295 -0.875872015953064 -0.1860010027885437 -0.8527299761772156 -0.43967199325561523 0.28202998638153076
          -0.8601809740066528 -0.3384290039539337 0.3815160095691681 -0.8211879730224609 -0.2079399973154068 0.5314229726791382
          -0.7557830214500427 0.008980999700725079 0.6547600030899048 -0.9882580041885376 -0.0008740000193938613 0.15278899669647217
          0.9544699788093567 -0.19255399703979492 -0.22783799469470978 0.6061769723892212 0.019386999309062958 -0.7950940132141113
          0.5527899861335754 0.6247100234031677 -0.5515080094337463 0.5198900103569031 0.8232560157775879 -0.22795699536800385
          0.5472229719161987 0.8368369936943054 0.015838000923395157 0.6770129799842834 0.6853410005569458 0.26825401186943054
          0.8746520280838013 0.0008900000248104334 0.48475098609924316 0.6816679835319519 -0.6720420122146606 0.2892889976501465
          0.5346429944038391 -0.8447510004043579 0.023496000096201897 0.5001699924468994 -0.8314089775085449 -0.24205000698566437
          0.5414950251579285 -0.6013330221176147 -0.5875210165977478 -0.5373079776763916 -0.33610999584198 -0.773518979549408
          -0.2839590013027191 0.7553520202636719 -0.5906019806861877 -0.5483189821243286 -0.7163100242614746 -0.43156200647354126
          -0.025265000760555267 0.983519971370697 -0.1790280044078827 0.11244499683380127 0.9728209972381592 0.20242400467395782
          0.22505499422550201 0.6549680233001709 0.7213640213012695 0.1926169991493225 -0.04761900007724762 0.9801179766654968
          0.008369999937713146 -0.6235920190811157 0.7817050218582153 -0.2893480062484741 -0.9087449908256531 0.3007639944553375
          -0.5308480262756348 -0.8469420075416565 -0.029844999313354492 -0.48411399126052856 -0.5127800107002258 -0.7090060114860535
          -0.16266599297523499 0.5387300252914429 -0.8266249895095825 -0.6195530295372009 -0.7220140099525452 -0.3079780042171478
          0.15429599583148956 0.9496650099754333 -0.27263298630714417 -0.6177880167961121 -0.7859579920768738 0.024663999676704407
          0.3764449954032898 0.8899580240249634 0.25742000341415405 0.41693899035453796 0.02679000049829483 0.9085389971733093
          0.009948000311851501 -0.18279600143432617 0.9831010103225708 -0.21623800694942474 -0.1722629964351654 0.9610239863395691
          -0.4053899943828583 -0.7902309894561768 0.45955801010131836 0.4301050007343292 0.08203700184822083 -0.8990439772605896
          0.30572599172592163 0.7957040071487427 -0.5228639841079712 0.3926059901714325 -0.6733109951019287 -0.6265079975128174
          0.19778600335121155 0.9682930111885071 -0.15260900557041168 0.36445900797843933 -0.901308000087738 -0.23412400484085083
          0.20017200708389282 0.9445170164108276 0.2604199945926666 0.48499399423599243 -0.8316720128059387 0.27037400007247925
          0.3988269865512848 0.4317620098590851 0.8090230226516724 0.5151150226593018 0.20087699592113495 0.8332499861717224
          0.6329560279846191 -0.10340999811887741 0.7672510147094727 -0.24562300741672516 0.20538300275802612 -0.9473580121994019
          -0.25265398621559143 0.8821529746055603 -0.3974579870700836 -0.07342100143432617 -0.7634739875793457 -0.64165198802948
          -0.060809001326560974 0.97816401720047 -0.19874200224876404 0.014835000038146973 -0.9807159900665283 -0.19487400352954865
          0.8951299786567688 0.445376992225647 -0.019541999325156212 0.13332100212574005 -0.9467549920082092 0.29305198788642883
          0.30075401067733765 0.34538498520851135 0.8889639973640442 0.3137739896774292 -0.3666360080242157 0.8758559823036194
          0.22278200089931488 0.2235960066318512 0.9488800168037415 -0.986594021320343 0.0053820000030100346 -0.1631069928407669
          -0.9449909925460815 0.315995991230011 -0.0844850018620491 -0.9471579790115356 -0.308230996131897 -0.08880399912595749
          -0.9973959922790527 -0.0655980035662651 0.02996799908578396 -0.890388011932373 -0.4496769905090332 0.07070700079202652
          -0.4488759934902191 -0.8739370107650757 -0.1863970011472702 -0.8526970148086548 -0.4397599995136261 0.28199100494384766
          -0.8614850044250488 -0.33994999527931213 0.3771960139274597 -0.8211249709129333 -0.20830799639225006 0.5313760042190552
          -0.755843997001648 0.00903599988669157 0.6546900272369385 -0.9882479906082153 -0.0007570000016130507 0.15285499393939972
          0.9500510096549988 -0.2118690013885498 -0.22915999591350555 0.7941110134124756 -0.09096299856901169 -0.6009269952774048
          0.8060430288314819 0.21890400350093842 -0.549888014793396 0.8713129758834839 0.37785500288009644 -0.3131130039691925
          0.930836021900177 0.36515599489212036 -0.014343000017106533 0.9617779850959778 0.1810079962015152 0.20547300577163696
          0.9502490162849426 -0.11907400190830231 0.28783199191093445 0.8939300179481506 -0.41247400641441345 0.175369992852211
          0.845475971698761 -0.5323910117149353 -0.04158899933099747 0.8229920268058777 -0.5172939896583557 -0.23471300303936005
          0.8085529804229736 -0.3882550001144409 -0.4421539902687073 0.01591300033032894 -0.05627400055527687 -0.9982889890670776
          0.08396899700164795 0.5671989917755127 -0.8192890286445618 0.07769300043582916 -0.6565300226211548 -0.7502880096435547
          0.26067599654197693 0.903186023235321 -0.3410319983959198 0.45183300971984863 0.8072909712791443 0.37964099645614624
          0.49782299995422363 0.06824400275945663 0.8645889759063721 0.3693639934062958 0.01998700015246868 0.929069995880127
          0.23103700578212738 0.061340998858213425 0.9710090160369873 0.23952600359916687 -0.8480110168457031 0.47276198863983154
          0.15726299583911896 -0.9483850002288818 -0.2753799855709076 -0.31355398893356323 -0.13657799363136292 -0.9396970272064209
          -0.21571500599384308 0.49277400970458984 -0.8429949879646301 -0.30194300413131714 -0.6810250282287598 -0.667110025882721
          -0.02183300070464611 0.9366080164909363 -0.349698007106781 -0.225041002035141 -0.9536389708518982 -0.19982099533081055
          0.1877260059118271 0.7799180150032043 0.5970649719238281 0.18476499617099762 -0.35060200095176697 0.9181180000305176
          -0.026765000075101852 0.011218000203371048 0.9995790123939514 -0.13321399688720703 0.4537549912929535 0.8811129927635193
          -0.18489299714565277 -0.7208160161972046 0.6680110096931458 -0.1062069982290268 -0.13230299949645996 -0.9855030179023743
          -0.09483399987220764 0.4988189935684204 -0.8615019917488098 -0.05243000015616417 -0.6888059973716736 -0.7230470180511475
          -0.015633000060915947 0.9385579824447632 -0.3447679877281189 0.029864000156521797 -0.9680039882659912 -0.2491540014743805
          0.13877800107002258 0.8216040134429932 0.5529080033302307 0.21325500309467316 -0.8355399966239929 0.5063549876213074
          0.22235499322414398 -0.16992999613285065 0.9600430130958557 0.3255000114440918 -0.07007499784231186 0.9429420232772827
          0.3533580005168915 0.08253300189971924 0.9318400025367737 0.11950100213289261 -0.05509199947118759 -0.9913039803504944
          0.07846900075674057 0.5721099972724915 -0.8164139986038208 0.17295899987220764 -0.6255699992179871 -0.7607539892196655
          0.03435799852013588 0.9516670107841492 -0.30520200729370117 0.2442529946565628 -0.9229670166969299 -0.29744499921798706
          0.0900529995560646 0.8982449769973755 0.4301699995994568 0.4256879985332489 -0.847806990146637 0.31624799966812134
          0.29071301221847534 0.22196100652217865 0.9307090044021606 0.6069210171699524 -0.2639720141887665 0.7496439814567566
          0.515703022480011 -0.05913500115275383 0.8547239899635315 -0.33998799324035645 0.002469999948516488 -0.9404270052909851
          -0.2826330065727234 0.6590409874916077 -0.6969820261001587 -0.2900629937648773 -0.6458569765090942 -0.7062100172042847
          -0.2026059925556183 0.9538769721984863 -0.22151699662208557 -0.19560299813747406 -0.9534749984741211 -0.22939999401569366
          -0.1107880026102066 0.9075199961662292 0.40513500571250916 -0.036772001534700394 -0.9190260171890259 0.39247798919677734
          0.058605000376701355 0.38472500443458557 0.9211689829826355 0.16498799622058868 -0.39881500601768494 0.9020670056343079
          0.18837599456310272 -0.015018999576568604 0.9819819927215576 -0.9779599905014038 0.028867999091744423 -0.20678499341011047
          -0.9147570133209229 0.3742760121822357 -0.15211200714111328 -0.9518910050392151 -0.2817310094833374 -0.12054800242185593
          -0.813605010509491 0.5811439752578735 0.017847999930381775 -0.9076300263404846 -0.41574299335479736 0.05800500139594078
          -0.7419400215148926 0.5733469724655151 0.34755998849868774 -0.8605390191078186 -0.39831799268722534 0.3175159990787506
          -0.7190210223197937 0.2812969982624054 0.6355159878730774 -0.8061230182647705 -0.18756400048732758 0.5612360239028931
          -0.7465289831161499 0.0233910009264946 0.6649410128593445 -0.9838489890098572 0.047623999416828156 0.17254699766635895
          0.9500920176506042 -0.21163399517536163 -0.22920900583267212 0.7940980195999146 -0.0908460021018982 -0.6009619832038879
          0.805994987487793 0.2191389948129654 -0.5498629808425903 0.8711940050125122 0.3782300055027008 -0.3129900097846985
          0.9308469891548157 0.3651280105113983 -0.014359000138938427 0.9618210196495056 0.1808450073003769 0.20541399717330933
          0.9502249956130981 -0.11908899992704391 0.2879050076007843 0.8939149975776672 -0.41242098808288574 0.1755709946155548
          0.8455680012702942 -0.5322510004043579 -0.041508998721838 0.8230180144309998 -0.5171509981155396 -0.23494000732898712
          0.8085690140724182 -0.38809600472450256 -0.44226500391960144 0.015850000083446503 -0.05630600079894066 -0.9982879757881165
          0.08395999670028687 0.567225992679596 -0.819271981716156 0.07773199677467346 -0.6564350128173828 -0.7503669857978821
          0.2607010006904602 0.9032179713249207 -0.34092798829078674 0.4519970118999481 0.8071339726448059 0.37977999448776245
          0.49784499406814575 0.06796199828386307 0.8645989894866943 0.36934199929237366 0.02008100040256977 0.9290770292282104
          0.23108400404453278 0.061438001692295074 0.9709920287132263 0.23944500088691711 -0.8479650020599365 0.4728870093822479
          0.157150000333786 -0.9483680129051208 -0.2755019962787628 -0.3137100040912628 -0.13661299645900726 -0.9396399855613708
          -0.2158930003643036 0.4926449954509735 -0.8430250287055969 -0.3021090030670166 -0.6808580160140991 -0.6672049760818481
          -0.02184399962425232 0.9366130232810974 -0.3496829867362976 -0.22527599334716797 -0.9535890221595764 -0.1997939944267273
          0.1874929964542389 0.7799609899520874 0.5970820188522339 0.1844239979982376 -0.350490003824234 0.9182289838790894
          -0.02697400003671646 0.011282999999821186 0.9995719790458679 -0.13324999809265137 0.45394399762153625 0.8810099959373474
          -0.18510200083255768 -0.7205830216407776 0.6682040095329285 -0.10614199936389923 -0.13241800665855408 -0.9854940176010132
          -0.094821996986866 0.4985800087451935 -0.8616420030593872 -0.05240200087428093 -0.6886510252952576 -0.7231969833374023
          -0.015561000443994999 0.9385589957237244 -0.3447670042514801 0.029910000041127205 -0.9679960012435913 -0.2491759955883026
          0.1388690024614334 0.8217470049858093 0.5526739954948425 0.21338500082492828 -0.8356019854545593 0.506197988986969
          0.2225009948015213 -0.16958299279212952 0.960070013999939 0.32568299770355225 -0.07005900144577026 0.9428799748420715
          0.35357698798179626 0.08240099996328354 0.9317690134048462 0.11956200003623962 -0.05519700050354004 -0.9912909865379333
          0.07846999913454056 0.5719299912452698 -0.8165410161018372 0.1729850023984909 -0.625482976436615 -0.7608199715614319
          0.03440900146961212 0.951636016368866 -0.3052929937839508 0.24432599544525146 -0.9229130148887634 -0.2975519895553589
          0.09019099920988083 0.8983340263366699 0.42995500564575195 0.4257740080356598 -0.8478350043296814 0.3160560131072998
          0.2906470000743866 0.2223619967699051 0.9306340217590332 0.6069859862327576 -0.2641240060329437 0.749538004398346
          0.5156130194664001 -0.058977000415325165 0.8547899723052979 -0.3398289978504181 0.002492999890819192 -0.9404839873313904
          -0.28279900550842285 0.6586700081825256 -0.6972640156745911 -0.2900640070438385 -0.6457250118255615 -0.7063300013542175
          -0.2026969939470291 0.9538090229034424 -0.2217240035533905 -0.19557900726795197 -0.9534860253334045 -0.22937600314617157
          -0.11066800355911255 0.9075390100479126 0.4051249921321869 -0.036580998450517654 -0.9190459847450256 0.3924489915370941
          0.058494001626968384 0.38484200835227966 0.9211270213127136 0.16493000090122223 -0.3985370099544525 0.9022009968757629
          0.18806999921798706 -0.01457899995148182 0.9820470213890076 -0.9778990149497986 0.028975000604987144 -0.20705999433994293
          -0.9149019718170166 0.3738059997558594 -0.1523910015821457 -0.9519709944725037 -0.28148600459098816 -0.12048300355672836
          -0.8137329816818237 0.5809670090675354 0.017784999683499336 -0.9075570106506348 -0.4158799946308136 0.05817500129342079
          -0.7418950200080872 0.5733180046081543 0.3477039933204651 -0.8605139851570129 -0.39855000376701355 0.3172920048236847
          -0.7189729809761047 0.2811819911003113 0.6356210112571716 -0.8062450289726257 -0.18718500435352325 0.5611870288848877
          -0.7464939951896667 0.023868000134825706 0.6649630069732666 -0.9838449954986572 0.04761900007724762 0.1725739985704422
          0.9554449915885925 -0.1919119954109192 -0.224263995885849 0.810600996017456 -0.07982400059700012 -0.5801330208778381
          0.8195440173149109 0.21558299660682678 -0.5309150218963623 0.8792189955711365 0.3661789894104004 -0.3047739863395691