<?xml version="1.0"?>
<VTKFile type="PolyData" version="0.1" byte_order="LittleEndian" header_type="UInt32" compressor="vtkZLibDataCompressor">
  <PolyData>
    <Piece NumberOfPoints="142" NumberOfVerts="0" NumberOfLines="0" NumberOfStrips="0" NumberOfPolys="158">
      <PointData Normals="Normals">
        <DataArray type="Float32" Name="Normals" NumberOfComponents="3" format="ascii" RangeMin="0.9999993383740954" RangeMax="1.000000760758234">
          0.4662260115146637 0.8726189732551575 -0.1454949975013733 -0.010088000446557999 0.9900180101394653 -0.1405780017375946
          0.026103999465703964 0.982554018497467 0.18413500487804413 0.7311980128288269 0.3483079969882965 -0.5865409970283508
          0.0343719981610775 0.5585079789161682 -0.8287870287895203 0.6141809821128845 0.7865369915962219 -0.06435400247573853
          0.9632710218429565 0.19296599924564362 -0.18674199283123016 -0.39279600977897644 0.9094070196151733 -0.1367119997739792
          -0.6174589991569519 0.41182801127433777 -0.6701809763908386 0.4415940046310425 0.8938260078430176 0.07790499925613403
          0.18409399688243866 0.9819369912147522 0.04368399828672409 0.07274399697780609 0.9422109723091125 0.32702699303627014
          -0.13182500004768372 0.7473300099372864 0.6512449979782104 -0.527692973613739 0.7794790267944336 0.3375680148601532
          -0.5508289933204651 0.8298410177230835 -0.08917199820280075 0.6077799797058105 0.1800439953804016 -0.7734259963035583
          -0.0023089998867362738 -0.0006370000191964209 -0.9999970197677612 0.91634601354599 0.3006249964237213 -0.2644500136375427
          -0.5957329869270325 -0.1939529925584793 -0.7794129848480225 0.8804150223731995 0.47391700744628906 0.016466999426484108
          0.9299060106277466 0.3454889953136444 0.12614400684833527 -0.9543060064315796 0.03679800033569336 -0.2965559959411621
          -0.7600380182266235 -0.5780889987945557 -0.29690900444984436 0.5882620215415955 0.8063780069351196 -0.06084899976849556
          0.05980899930000305 0.9605500102043152 0.2715989947319031 -0.4912460148334503 0.6251779794692993 0.6064900159835815
          -0.8824390172958374 0.02844499982893467 0.4695670008659363 0.3983449935913086 0.03795599937438965 -0.916450023651123
          -0.1465660035610199 -0.2849630117416382 -0.9472669959068298 0.9209169745445251 0.26103198528289795 -0.2894369959831238
          -0.5012959837913513 -0.5155280232429504 -0.6949329972267151 0.9245820045471191 0.22916099429130554 0.30435800552368164
          -0.7235450148582458 -0.6342629790306091 -0.272381991147995 0.7583780288696289 0.4581589996814728 0.46362900733947754
          0.6494110226631165 0.19816599786281586 0.7341629862785339 -0.4462690055370331 -0.8870859742164612 0.11799199879169464
          -0.6621289849281311 -0.7266420125961304 0.18323999643325806 -0.011362000368535519 0.5254200100898743 0.8507670164108276
          -0.685617983341217 0.08705099672079086 0.7227380275726318 0.20096300542354584 -0.15478800237178802 -0.9672930240631104
          -0.19300100207328796 -0.26480698585510254 -0.9447900056838989 0.8907600045204163 -0.05973599851131439 -0.4505319893360138
          -0.39328300952911377 -0.37642499804496765 -0.8388280272483826 0.933568000793457 -0.08172699809074402 0.34895798563957214
          -0.8765779733657837 -0.29839301109313965 -0.37758898735046387 0.5764589905738831 -0.15719300508499146 0.8018640279769897
          -0.9521340131759644 -0.24174000322818756 0.18709099292755127 -0.03438900038599968 -0.0757950022816658 0.9965299963951111
          -0.2276030033826828 -0.26475000381469727 0.9370719790458679 -0.4952619969844818 -0.6061599850654602 0.6223239898681641
          -0.6692460179328918 -0.26611900329589844 0.6937509775161743 0.18644799292087555 -0.11246000230312347 -0.9760069847106934
          -0.15024800598621368 -0.05924199894070625 -0.9868720173835754 0.8384299874305725 -0.12396000325679779 -0.5307250022888184
          -0.318915992975235 -0.059046000242233276 -0.9459419846534729 0.9053189754486084 -0.12508000433444977 0.40589800477027893
          -0.8920180201530457 -0.040226999670267105 -0.450204998254776 0.0701489970088005 -0.43279600143432617 0.8987590074539185
          -0.9719079732894897 -0.025182999670505524 0.2340099960565567 -0.3479290008544922 -0.34995201230049133 0.8697580099105835
          -0.5471900105476379 -0.09980499744415283 0.8310359716415405 0.46262499690055847 -0.10735099762678146 -0.8800309896469116
          -0.07842499762773514 -0.021928999572992325 -0.9966790080070496 0.9523259997367859 -0.14892199635505676 -0.26626598834991455
          -0.4159890115261078 -0.011958999559283257 -0.9092910289764404 0.7775989770889282 -0.19702400267124176 0.5970939993858337
          -0.9191709756851196 -0.02377299964427948 -0.3931410014629364 -0.12815099954605103 -0.21181200444698334 0.9688720107078552
          -0.9285169839859009 -0.02427699975669384 0.37049400806427 -0.21899600327014923 -0.15914499759674072 0.962660014629364
          -0.3543489873409271 -0.05740499868988991 0.9333490133285522 0.6964319944381714 -0.06918899714946747 -0.7142789959907532
          0.042034998536109924 0.010645000264048576 -0.9990590214729309 0.9858260154724121 -0.0976639986038208 -0.1364150047302246
          -0.46986499428749084 0.03675299882888794 -0.8819730281829834 0.8591139912605286 -0.09639299660921097 0.502623975276947
          -0.9286090135574341 0.023476000875234604 -0.3703170120716095 0.20581400394439697 -0.06610900163650513 0.976356029510498
          -0.9378809928894043 0.02038400061428547 0.3463580012321472 -0.06712199747562408 -0.034570999443531036 0.9971460103988647
          -0.4294550120830536 0.0041589997708797455 0.9030789732933044 0.7630299925804138 0.023013999685645103 -0.6459540128707886
          0.09223099797964096 0.15323400497436523 -0.9838759899139404 0.994038999080658 -0.022161999717354774 -0.10675100237131119
          -0.5217790007591248 0.18996599316596985 -0.8316609859466553 0.9160550236701965 -0.01596600003540516 0.4007349908351898
          -0.9433190226554871 0.09203600138425827 -0.3188689947128296 0.43959900736808777 -0.00355900009162724 0.898186981678009
          -0.9452959895133972 0.05237099900841713 0.3219830095767975 0.019359000027179718 0.008886000141501427 0.9997730255126953
          -0.4904859960079193 0.035962000489234924 0.8707069754600525 0.7226639986038208 0.09858399629592896 -0.684132993221283
          0.07790099829435349 0.20660500228405 -0.9753180146217346 0.9813460111618042 0.06459099799394608 -0.18107500672340393
          -0.5710499882698059 0.26419198513031006 -0.7772420048713684 0.9321569800376892 0.061806000769138336 0.35673901438713074
          -0.9366999864578247 0.2107589989900589 -0.2795970141887665 0.5075479745864868 0.05104700103402138 0.8601099848747253
          -0.9164239764213562 0.18988899886608124 0.35229000449180603 0.05993099883198738 0.06225999817252159 0.9962589740753174
          -0.4442000091075897 0.1358949989080429 0.885562002658844 0.5289099812507629 0.15449200570583344 -0.8344979882240295
          0.05104399845004082 -0.06948599964380264 -0.9962760210037231 0.89656001329422 0.2867029905319214 -0.33761200308799744
          -0.49219900369644165 -0.16806000471115112 -0.8541049957275391 0.915723979473114 0.279695987701416 0.2884790003299713
          -0.9254249930381775 -0.11680000275373459 -0.36048099398612976 0.589093029499054 0.24454200267791748 0.7701740264892578
          -0.9126049876213074 -0.06581900268793106 0.4035089910030365 0.038221001625061035 0.20439499616622925 0.9781420230865479
          -0.4719789922237396 0.07591299712657928 0.8783360123634338 0.41558900475502014 -0.3573249876499176 -0.8364229798316956
          0.16259700059890747 -0.9338030219078064 -0.3187069892883301 0.8809360265731812 0.017191000282764435 -0.47292301058769226
          0.20513799786567688 -0.9458550214767456 -0.25154998898506165 0.9449650049209595 0.03106199949979782 0.3256930112838745
          -0.2608630061149597 -0.9473279714584351 -0.18579700589179993 0.5710600018501282 0.03922799974679947 0.8199700117111206
          -0.362758994102478 -0.8421869874000549 0.39890798926353455 0.04368000105023384 -0.11829099804162979 0.9920179843902588
          -0.21014299988746643 -0.49810099601745605 0.8412700295448303 0.003452999982982874 -0.9251009821891785 -0.379707008600235
          0.23243099451065063 -0.871508002281189 0.4317980110645294 0.5021299719810486 -0.7690960168838501 -0.39541900157928467
          0.7395179867744446 -0.6521720290184021 0.16668899357318878 0.64021897315979 -0.7257429957389832 0.25182801485061646
          0.07946500182151794 -0.971019983291626 -0.22539900243282318 0.4661949872970581 -0.5544170141220093 0.6894090175628662
          -0.4047429859638214 -0.8378030061721802 0.36642900109291077 0.12882199883460999 -0.5283949971199036 0.8391680121421814
          -0.13308100402355194 -0.6525020003318787 0.7460100054740906 -0.33243000507354736 -0.8663600087165833 -0.37270599603652954
          0.2451149970293045 -0.960657000541687 -0.13060200214385986 -0.19866999983787537 -0.9485260248184204 -0.24663500487804413
          0.7457200288772583 -0.6222699880599976 -0.23808099329471588 -0.03596699982881546 -0.9992560148239136 0.013895000331103802
          0.4182719886302948 -0.8228030204772949 -0.38476601243019104 0.08800199627876282 -0.9883360266685486 0.12429100275039673
          0.07034099847078323 -0.9407860040664673 0.33162200450897217 0.25847500562667847 -0.9131839871406555 0.315095990896225
          0.3032670021057129 -0.8209900259971619 0.4837389886379242 0.23869900405406952 -0.9427080154418945 -0.2330770045518875
          <InformationKey name="L2_NORM_RANGE" location="vtkDataArray" length="2">
            <Value index="0">
              0.99999933837
            </Value>
            <Value index="1">
              1.0000007608
            </Value>
          </InformationKey>
        </DataArray>
      </PointData>
      <CellData>
      </CellData>
      <Points>
        <DataArray type="Float32" Name="Points" NumberOfComponents="3" format="ascii" RangeMin="0.030312746171207827" RangeMax="0.42014563457943455">
          0.016459999606013298 -0.031254999339580536 -0.009682999923825264 0.006000000052154064 -0.028519999235868454 -0.008334999904036522
          0.006000000052154064 -0.031254999339580536 0.00318100000731647 0.023854000493884087 -0.040316998958587646 -0.018776999786496162
          0.006000000052154064 -0.038777001202106476 -0.028074000030755997 0.02759299986064434 -0.03398999944329262 -0.0030879999976605177
          0.030511999502778053 -0.04185499995946884 -0.0039369999431073666 -0.007977000437676907 -0.0310830008238554 -0.014008999802172184
          -0.015821000561118126 -0.0466420017182827 -0.023656999692320824 0.02759299986064434 -0.03398999944329262 0.009448999539017677
          0.016008999198675156 -0.0346749983727932 0.01549100037664175 0.006000000052154064 -0.03535899892449379 0.01332399994134903
          -0.007524999789893627 -0.03450300171971321 0.019814999774098396 -0.026972999796271324 -0.03364900127053261 0.012753999792039394
          -0.026972999796271324 -0.03364900127053261 -0.006393000017851591 0.024484999477863312 -0.05262700095772743 -0.019554000347852707
          0.006000000052154064 -0.04869399964809418 -0.029719000682234764 0.030804000794887543 -0.0565590001642704 -0.004021000117063522
          -0.015279999934136868 -0.05416499823331833 -0.022991999983787537 0.030511999502778053 -0.04185499995946884 0.01029799971729517
          0.030804000794887543 -0.0565590001642704 0.010382000356912613 -0.0313510000705719 -0.054506998509168625 -0.007664000149816275
          -0.02785000018775463 -0.05963600054383278 -0.006647000089287758 0.019164999946951866 -0.03655499964952469 0.0193719994276762
          0.006000000052154064 -0.031254999339580536 0.020177999511361122 -0.011132000014185905 -0.04288100078701973 0.024251999333500862
          -0.0313510000705719 -0.054506998509168625 0.014024999924004078 0.02493700012564659 -0.06835699826478958 -0.020107999444007874
          0.006000000052154064 -0.06818599998950958 -0.023686999455094337 0.038683000952005386 -0.06852900236845016 -0.006308000069111586
          -0.01104199979454279 -0.06544999778270721 -0.0177800003439188 0.038683000952005386 -0.06852900236845016 0.012668999843299389
          -0.02055400051176548 -0.06271500140428543 -0.004528000019490719 0.02457600086927414 -0.045958999544382095 0.02602599933743477
          0.02737100049853325 -0.06220199912786484 0.02946300059556961 -0.02785000018775463 -0.05963600054383278 0.013008000329136848
          -0.02055400051176548 -0.06271500140428543 0.010889999568462372 0.006000000052154064 -0.03535899892449379 0.036354001611471176
          -0.01537100039422512 -0.04749700054526329 0.02946300059556961 0.02268199995160103 -0.08066699653863907 -0.017335999757051468
          0.006000000052154064 -0.07912900298833847 -0.013818000443279743 0.039000000804662704 -0.08220499753952026 -0.007240999955683947
          -0.005361999850720167 -0.07964199781417847 -0.01079300045967102 0.039000000804662704 -0.08220499753952026 0.013602999970316887
          -0.012675999663770199 -0.08015500009059906 -0.002242000075057149 0.02863300032913685 -0.07057999819517136 0.03101699985563755
          -0.012675999663770199 -0.08015500009059906 0.008601999841630459 0.006000000052154064 -0.05587499961256981 0.037450000643730164
          0.006000000052154064 -0.058952998369932175 0.03827299922704697 -0.013477000407874584 -0.05929400026798248 0.02713399939239025
          -0.011312000453472137 -0.06955400109291077 0.024473000317811966 0.01961600035429001 -0.11725600063800812 -0.013565000146627426
          0.006000000052154064 -0.13349899649620056 -0.007784999907016754 0.03838900104165077 -0.10101400315761566 -0.00622399989515543
          -0.0025659999810159206 -0.13418300449848175 -0.007354999892413616 0.03838900104165077 -0.10101400315761566 0.01258500013500452
          -0.010049000382423401 -0.13486699759960175 -0.0014799999771639705 0.024304000660777092 -0.08408699929714203 0.02569199912250042
          -0.010049000382423401 -0.13486699759960175 0.007841000333428383 0.006000000052154064 -0.06715899705886841 0.02840300090610981
          -0.0072559998370707035 -0.10101400315761566 0.019481999799609184 0.01709200069308281 -0.18616099655628204 -0.010459999553859234
          0.006000000052154064 -0.23505899310112 -0.005865999963134527 0.03226200118660927 -0.13726100325584412 -0.0044450000859797
          -0.001934999949298799 -0.2024029940366745 -0.006577999796718359 0.03226200118660927 -0.13726100325584412 0.010805999860167503
          -0.010049000382423401 -0.16974599659442902 -0.0014799999771639705 0.01979699917137623 -0.11041799932718277 0.02014799974858761
          -0.010049000382423401 -0.16974599659442902 0.007841000333428383 0.006000000052154064 -0.08357500284910202 0.020452000200748444
          -0.004641000181436539 -0.12666000425815582 0.016266999766230583 0.014836999587714672 -0.2545500099658966 -0.007687999866902828
          0.006000000052154064 -0.3044759929180145 -0.006688999943435192 0.024091999977827072 -0.2046249955892563 -0.0020719999447464943
          -0.0006730000022798777 -0.2873769998550415 -0.005026999861001968 0.024091999977827072 -0.2046249955892563 0.008433000184595585
          -0.00508800009265542 -0.2702830135822296 -0.000039999998989515007 0.015557999722659588 -0.16940400004386902 0.014934999868273735
          -0.00508800009265542 -0.2702830135822296 0.006401000078767538 0.006000000052154064 -0.13418300449848175 0.015243000350892544
          -0.0013940000208094716 -0.2022310048341751 0.012273999862372875 0.014926999807357788 -0.32003599405288696 -0.007797999773174524
          0.006000000052154064 -0.3680810034275055 -0.011350000277161598 0.019423000514507294 -0.27199000120162964 -0.0007159999804571271
          -0.003918999806046486 -0.35320499539375305 -0.009019000455737114 0.019423000514507294 -0.27199000120162964 0.0070779998786747456
          -0.010631999932229519 -0.3383300006389618 -0.0016479999758303165 0.013753999955952168 -0.253356009721756 0.012718000449240208
          -0.010631999932229519 -0.3383300006389618 0.00800899975001812 0.006000000052154064 -0.23471799492835999 0.014147000387310982
          -0.0027469999622553587 -0.2865230143070221 0.013938000425696373 0.018624000251293182 -0.36517301201820374 -0.012346000410616398
          0.006000000052154064 -0.3903059959411621 -0.020944999530911446 0.021174000576138496 -0.3400390148162842 -0.0012250000145286322
          -0.0072559998370707035 -0.3814150094985962 -0.013120999559760094 0.021174000576138496 -0.3400390148162842 0.007586000021547079
          -0.011215999722480774 -0.37252599000930786 -0.001816999982111156 0.014565999619662762 -0.32071998715400696 0.013717000372707844
          -0.011215999722480774 -0.37252599000930786 0.008178000338375568 0.006000000052154064 -0.30139899253845215 0.01496999990195036
          -0.003197999903932214 -0.3369629979133606 0.014492000453174114 0.020879000425338745 -0.39612099528312683 -0.015118000097572803
          0.006000000052154064 -0.40535199642181396 -0.023414000868797302 0.025841999799013138 -0.38688600063323975 -0.002580000087618828
          -0.0119439996778965 -0.40654999017715454 -0.01888900063931942 0.025841999799013138 -0.38688600063323975 0.00894199963659048
          -0.023763999342918396 -0.40774598717689514 -0.005458999890834093 0.017812000587582588 -0.3785090148448944 0.01770699955523014
          -0.023763999342918396 -0.40774598717689514 0.011820999905467033 0.006000000052154064 -0.3701309859752655 0.020452000200748444
          -0.008879000321030617 -0.3889380097389221 0.021477999165654182 0.020788000896573067 -0.40689098834991455 -0.015007000416517258
          0.006000000052154064 -0.41526898741722107 -0.0173799991607666 0.03197000175714493 -0.3985140025615692 -0.004360999912023544
          -0.009057999588549137 -0.41407299041748047 -0.01534000039100647 0.03197000175714493 -0.3985140025615692 0.010722000151872635
          -0.02084599994122982 -0.4128760099411011 -0.004614000208675861 0.022050999104976654 -0.3928709924221039 0.022919999435544014
          -0.02084599994122982 -0.4128760099411011 0.010974000208079815 0.006000000052154064 -0.38722899556159973 0.027580000460147858
          -0.010320999659597874 -0.400052011013031 0.023252999410033226 0.01826299913227558 -0.40501001477241516 -0.011901999823749065
          0.006000000052154064 -0.40330201387405396 -0.013268999755382538 0.028176000341773033 -0.40671899914741516 -0.003258999902755022
          -0.004189999774098396 -0.4080890119075775 -0.009352000430226326 0.028176000341773033 -0.40671899914741516 0.009619999676942825
          -0.009465999901294708 -0.4128760099411011 -0.0013099999632686377 0.01961600035429001 -0.40347200632095337 0.019927000626921654
          -0.009465999901294708 -0.4128760099411011 0.007670999970287085 0.006000000052154064 -0.4002229869365692 0.02374199964106083
          -0.005541999824345112 -0.40654999017715454 0.017376000061631203 0.013213999569416046 -0.40483900904655457 -0.005692000035196543
          0.006000000052154064 -0.4005649983882904 -0.008882000111043453 0.01650499925017357 -0.4091149866580963 0.00013099999341648072
          -0.0015739999944344163 -0.4103119969367981 -0.006134999915957451 0.01650499925017357 -0.4091149866580963 0.00622999994084239
          -0.005671999882906675 -0.42005598545074463 -0.00020700000459328294 0.01357400044798851 -0.4091149866580963 0.012494999915361404
          -0.005671999882906675 -0.42005598545074463 0.006568999961018562 0.006000000052154064 -0.4091149866580963 0.016339000314474106
          -0.001934999949298799 -0.4145849943161011 0.012938999570906162 0.006000000052154064 -0.403984010219574 0.00318100000731647
          <InformationKey name="L2_NORM_RANGE" location="vtkDataArray" length="2">
            <Value index="0">
              0.030312746171
            </Value>
            <Value index="1">
              0.42014563458
            </Value>
          </InformationKey>
        </DataArray>
      </Points>
      <Verts>
        <DataArray type="Int64" Name="connectivity" format="ascii" RangeMin="1e+299" RangeMax="-1e+299">
        </DataArray>
        <DataArray type="Int64" Name="offsets" format="ascii" RangeMin="1e+299" RangeMax="-1e+299">
        </DataArray>
      </Verts>
      <Lines>
        <DataArray type="Int64" Name="connectivity" format="ascii" RangeMin="1e+299" RangeMax="-1e+299">
        </DataArray>
        <DataArray type="Int64" Name="offsets" format="ascii" RangeMin="1e+299" RangeMax="-1e+299">
        </DataArray>
      </Lines>
      <Strips>
        <DataArray type="Int64" Name="connectivity" format="ascii" RangeMin="1e+299" RangeMax="-1e+299">
        </DataArray>
        <DataArray type="Int64" Name="offsets" format="ascii" RangeMin="1e+299" RangeMax="-1e+299">
        </DataArray>
      </Strips>
      <Polys>
        <DataArray type="Int32" Name="connectivity" format="ascii" RangeMin="0" RangeMax="141">
          0 1 2 0 3 4
          1 5 0 2 5 6
          3 0 1 7 2 1
          4 8 7 9 5 2
          10 9 2 11 10 2
          12 11 2 13 12 2
          14 13 2 7 14 2
          3 15 16 4 6 17
          15 3 4 16 18 8
          9 19 6 5 19 20
          17 6 7 8 21 14
          8 18 22 21 10 23
          19 9 11 24 23 10
          12 25 24 11 13 26
          25 12 14 21 26 13
          15 27 28 16 17 29
          27 15 16 28 30 18
          20 31 29 17 18 30
          32 22 23 33 20 19
          33 34 31 20 21 22
          35 26 22 32 36 35
          24 37 33 23 25 38
          37 24 26 38 25 26
          35 38 27 39 40 28
          27 41 39 29 41 27
          28 40 42 30 29 43
          41 31 43 29 30 42
          44 32 31 45 43 34
          45 31 32 44 46 36
          37 47 34 33 47 48
          45 34 35 36 49 38
          38 49 35 36 46 50
          49 38 49 47 37 39
          51 52 40 39 53 51
          41 53 39 40 52 54
          42 41 55 53 43 55
          41 42 54 56 44 43
          57 55 45 57 43 44
          56 58 46 48 59 57
          45 46 58 60 50 49
          50 48 47 50 60 59
          48 51 61 62 52 53
          63 61 51 52 62 64
          54 55 65 63 53 54
          64 66 56 57 67 65
          55 56 66 68 58 59
          69 67 57 58 68 70
          60 60 70 69 59 61
          71 72 62 63 73 71
          61 62 72 74 64 65
          75 73 63 64 74 76
          66 67 77 75 65 66
          76 78 68 69 79 77
          67 68 78 80 70 70
          80 79 69 71 81 82
          72 73 83 81 71 72
          82 84 74 75 85 83
          73 74 84 86 76 77
          87 85 75 76 86 88
          78 79 89 87 77 78
          88 90 80 80 90 89
          79 81 91 92 82 83
          93 91 81 82 92 94
          84 85 95 93 83 84
          94 96 86 87 97 95
          85 86 96 98 88 89
          99 97 87 88 98 100
          90 90 100 99 89 91
          101 102 92 93 103 101
          91 92 102 104 94 95
          105 103 93 94 104 106
          96 97 107 105 95 96
          106 108 98 99 109 107
          97 98 108 110 100 100
          110 109 99 101 111 112
          102 103 113 111 101 102
          112 114 104 105 115 113
          103 104 114 116 106 107
          117 115 105 106 116 118
          108 109 119 117 107 108
          118 120 110 110 120 119
          109 111 121 122 112 113
          123 121 111 112 122 124
          114 115 125 123 113 114
          124 126 116 117 127 125
          115 116 126 128 118 119
          129 127 117 118 128 130
          120 120 130 129 119 121
          131 132 122 123 133 131
          121 122 132 134 124 125
          135 133 123 124 134 136
          126 127 137 135 125 126
          136 138 128 129 139 137
          127 128 138 140 130 130
          140 139 129 131 141 132
          133 141 131 132 141 134
          135 141 133 134 141 136
          137 141 135 136 141 138
          139 141 137 138 141 140
          140 141 139
        </DataArray>
        <DataArray type="Int32" Name="offsets" format="ascii" RangeMin="3" RangeMax="597">
          3 7 10 14 17 21
          24 27 30 33 36 39
          42 46 50 54 58 62
          66 70 74 78 82 86
          90 94 98 102 106 110
          114 118 122 126 130 134
          137 140 144 147 150 154
          157 160 164 167 170 174
          178 182 186 189 193 197
          201 204 207 211 214 217
          221 224 227 231 235 239
          243 247 251 255 259 263
          267 271 275 279 283 287
          291 295 299 303 307 311
          315 319 323 327 331 335
          339 343 347 351 355 359
          363 367 371 375 379 383
          387 391 395 399 403 407
          411 415 419 423 427 431
          435 439 443 447 451 455
          459 463 467 471 475 479
          483 487 491 495 499 503
          507 511 515 519 523 527
          531 535 539 543 547 551
          555 559 563 567 570 573
          576 579 582 585 588 591
          594 597
        </DataArray>
      </Polys>
    </Piece>
  </PolyData>
</VTKFile>
