<?xml version="1.0"?>
<VTKFile type="PolyData" version="0.1" byte_order="LittleEndian" header_type="UInt32" compressor="vtkZLibDataCompressor">
  <PolyData>
    <Piece NumberOfPoints="137" NumberOfVerts="0" NumberOfLines="0" NumberOfStrips="0" NumberOfPolys="270">
      <PointData Normals="Normals">
        <DataArray type="Float32" Name="Normals" NumberOfComponents="3" format="ascii" RangeMin="0.9999993283521716" RangeMax="1.0000007406183913">
          -0.010724999941885471 -0.5128189921379089 0.8584290146827698 0.1450130045413971 -0.2430890053510666 0.959102988243103
          -0.20007899403572083 -0.37446698546409607 0.9053969979286194 -0.4696449935436249 -0.4163520038127899 0.7785149812698364
          -0.5259029865264893 -0.6262680292129517 0.5755119919776917 -0.18190699815750122 -0.939706027507782 0.2895900011062622
          0.5419300198554993 -0.5446450114250183 0.6400579810142517 0.48167601227760315 -0.8746659755706787 -0.05429700016975403
          0.020614000037312508 -0.0059910002164542675 0.9997699856758118 0.6480749845504761 0.4579769968986511 0.6084870100021362
          0.8971740007400513 -0.015783000737428665 0.44139400124549866 -0.2353069931268692 -0.20496299862861633 0.9500640034675598
          -0.8278239965438843 -0.5609310269355774 -0.008000999689102173 -0.7864059805870056 -0.47682198882102966 0.3926909863948822
          -0.6643700003623962 -0.7461779713630676 0.042789001017808914 -0.2597459852695465 -0.9590240120887756 -0.11315400153398514
          0.8777419924736023 -0.44869300723075867 0.16805699467658997 0.865041971206665 -0.43156298995018005 -0.25584399700164795
          0.5356280207633972 -0.8391249775886536 -0.09472200274467468 0.016259999945759773 -0.9846720099449158 -0.17365799844264984
          -0.29931700229644775 0.4185110032558441 0.8574720025062561 -0.0489020012319088 0.6528649926185608 0.7558940052986145
          0.3166710138320923 0.8441110253334045 0.4326620101928711 0.7844759821891785 0.6191779971122742 0.03486299887299538
          0.9887059926986694 0.07350199669599533 -0.13060399889945984 0.1612360030412674 0.6925619840621948 0.703108012676239
          -0.2793099880218506 -0.3319369852542877 0.9010009765625 0.18446500599384308 -0.1418820023536682 0.9725440144538879
          -0.8905019760131836 -0.4517039954662323 -0.05449499934911728 -0.6387509703636169 -0.5717139840126038 0.5149170160293579
          -0.8711029887199402 -0.4877600073814392 0.05717699974775314 -0.3044390082359314 -0.36677899956703186 0.8790850043296814
          -0.8832629919052124 -0.4387339949607849 -0.16540299355983734 -0.7427020072937012 -0.6676980257034302 -0.05072199925780296
          -0.47057199478149414 -0.8663539886474609 -0.16731099784374237 0.9803500175476074 -0.18772900104522705 -0.060596998780965805
          0.8719580173492432 -0.48957300186157227 -0.0027469999622553587 0.5817490220069885 -0.7948960065841675 -0.17236199975013733
          -0.185357004404068 -0.9793050289154053 -0.08126399666070938 0.22868900001049042 -0.9409580230712891 -0.24959899485111237
          0.5035989880561829 0.8639259934425354 0.00442600017413497 0.5928249955177307 0.7904469966888428 0.15411800146102905
          0.809939980506897 0.5857139825820923 -0.030612999573349953 0.7703099846839905 0.2601029872894287 0.5822100043296814
          0.21104800701141357 -0.1590290069580078 0.9644529819488525 -0.13423900306224823 -0.4639759957790375 0.8756179809570312
          -0.6484249830245972 -0.5616070032119751 0.5139480233192444 -0.7989240288734436 -0.5492159724235535 0.24511699378490448
          -0.8139709830284119 -0.5609390139579773 0.1509930044412613 -0.8805530071258545 -0.44870999455451965 -0.15259699523448944
          -0.7187619805335999 -0.26958200335502625 -0.6408640146255493 0.7068660259246826 0.037418000400066376 0.7063570022583008
          -0.9388579726219177 -0.2911669909954071 -0.18375800549983978 -0.7401670217514038 -0.571461021900177 -0.3543800115585327
          -0.8389570116996765 -0.26819899678230286 -0.4735189974308014 0.9910500049591064 0.1332940012216568 -0.007290999870747328
          0.8016059994697571 -0.4183819890022278 -0.42706501483917236 0.4329099953174591 -0.6946370005607605 -0.5745149850845337
          -0.24543499946594238 -0.8004649877548218 -0.5468249917030334 0.13555599749088287 -0.6615129709243774 -0.7375800013542175
          0.544094979763031 0.8388350009918213 0.01781800016760826 0.64198899269104 0.7666699886322021 -0.008177000097930431
          0.6172749996185303 0.4234260022640228 -0.6630849838256836 0.6562430262565613 0.7297689914703369 -0.1917870044708252
          -0.4855149984359741 -0.588388979434967 0.646586000919342 0.13065700232982635 -0.5640689730644226 0.8153250217437744
          0.4703660011291504 -0.31860101222991943 0.8229510188102722 0.3630389869213104 -0.2113720029592514 0.9074829816818237
          -0.8252300024032593 -0.46928998827934265 0.31426599621772766 -0.9757639765739441 -0.21481400728225708 0.04171700030565262
          -0.8987259864807129 -0.37039899826049805 -0.23472599685192108 -0.7620570063591003 -0.32844001054763794 -0.5580289959907532
          -0.441552996635437 -0.015224000439047813 -0.8971059918403625 -0.30191001296043396 -0.12552900612354279 -0.945035994052887
          0.8761759996414185 -0.09194900095462799 0.47314000129699707 0.9403380155563354 0.1949550062417984 -0.27884799242019653
          -0.8040080070495605 -0.23278699815273285 -0.5471569895744324 -0.910519003868103 -0.17659500241279602 -0.3738580048084259
          -0.3713729977607727 -0.28603899478912354 -0.88332599401474 -0.7149220108985901 -0.206154003739357 -0.6681219935417175
          -0.7040719985961914 -0.1255750060081482 -0.6989369988441467 0.7617869973182678 0.1995919942855835 -0.6163139939308167
          0.20483699440956116 -0.24560900032520294 -0.9474800229072571 0.27164000272750854 0.6613209843635559 -0.6991890072822571
          0.19071699678897858 0.8099120259284973 -0.5546799898147583 0.3548330068588257 0.21779200434684753 -0.9092090129852295
          0.15717899799346924 0.3617199957370758 -0.9189419746398926 -0.3647080063819885 -0.5664700269699097 0.7389860153198242
          -0.7888060212135315 -0.3796730041503906 0.4833579957485199 0.07259999960660934 -0.5090100169181824 0.8576939702033997
          0.3867419958114624 -0.21870000660419464 0.8958799839019775 0.6683229804039001 -0.2983579933643341 0.6814150214195251
          -0.9286230206489563 -0.23353999853134155 -0.2883020043373108 -0.8336910009384155 0.5291069746017456 0.15813200175762177
          -0.9857469797134399 0.11797499656677246 -0.11993400007486343 -0.9775639772415161 -0.07244700193405151 -0.19778700172901154
          -0.8921409845352173 0.3645780086517334 0.26677200198173523 -0.9202640056610107 -0.23493899405002594 -0.3129180073738098
          -0.9091179966926575 -0.15973299741744995 -0.38469499349594116 -0.4557879865169525 -0.24816299974918365 -0.8547930121421814
          -0.3442929983139038 0.28328800201416016 -0.8951029777526855 -0.037317998707294464 -0.09676399827003479 -0.9946069717407227
          0.9755240082740784 0.09096899628639221 0.20019400119781494 0.4164089858531952 0.08854500204324722 -0.9048550128936768
          0.8378000259399414 0.2822740077972412 -0.4673460125923157 -0.4168649911880493 -0.07609300315380096 -0.9057779908180237
          -0.291703999042511 0.15039999783039093 -0.9446099996566772 0.17410999536514282 0.14549300074577332 -0.9739189743995667
          -0.7005839943885803 -0.1505430042743683 0.6975089907646179 -0.31043100357055664 -0.2975969910621643 0.9028120040893555
          -0.11144299805164337 -0.029652999714016914 0.9933279752731323 0.005781999789178371 0.307202011346817 0.9516270160675049
          0.4458790123462677 0.4194110035896301 0.7907509803771973 0.7464489936828613 0.0027030000928789377 0.6654369831085205
          -0.7337160110473633 0.6681960225105286 -0.12318599969148636 -0.9276459813117981 0.3122589886188507 -0.20486199855804443
          -0.19424399733543396 0.9691219925880432 0.15189500153064728 -0.7142230272293091 0.2603349983692169 0.6497009992599487
          -0.5308730006217957 0.7692009806632996 0.3556729853153229 -0.7083600163459778 -0.004637000150978565 -0.7058359980583191
          -0.11104799807071686 -0.05196300148963928 -0.9924560189247131 0.7878040075302124 0.566806972026825 0.24102899432182312
          0.23421399295330048 0.5097749829292297 -0.8278120160102844 0.6195709705352783 0.6876710057258606 -0.3784700036048889
          0.7427949905395508 0.6663609743118286 -0.06494800001382828 -0.47325900197029114 0.083406001329422 0.8769659996032715
          -0.38640299439430237 0.3882859945297241 0.8366159796714783 -0.1734129935503006 0.7172759771347046 0.6748650074005127
          0.15015199780464172 0.8774549961090088 0.45555099844932556 -0.19449099898338318 0.9732969999313354 0.12192799896001816
          -0.46897900104522705 0.24099700152873993 -0.8496930003166199 -0.3644709885120392 0.778065025806427 -0.5116400122642517
          -0.3142400085926056 0.9313139915466309 0.18413899838924408 0.42204201221466064 0.9060729742050171 0.030198000371456146
          -0.13250300288200378 0.3655500113964081 -0.9213119745254517 0.012640999630093575 0.9408519864082336 -0.33858099579811096
          0.3858729898929596 0.9057180285453796 -0.17543500661849976
          <InformationKey name="L2_NORM_RANGE" location="vtkDataArray" length="2">
            <Value index="0">
              0.99999932835
            </Value>
            <Value index="1">
              1.0000007406
            </Value>
          </InformationKey>
        </DataArray>
      </PointData>
      <CellData>
      </CellData>
      <Points>
        <DataArray type="Float32" Name="Points" NumberOfComponents="3" format="ascii" RangeMin="0.09046286012923464" RangeMax="0.12848221817480843">
          0.017103999853134155 -0.11880099773406982 -0.04069799929857254 0.01796399988234043 -0.11511199921369553 -0.038993000984191895
          0.015775000676512718 -0.11621200293302536 -0.04041900113224983 0.0125749995931983 -0.11661899834871292 -0.04067999869585037
          0.013766000047326088 -0.11836999654769897 -0.04103200137615204 0.01525299996137619 -0.11912000179290771 -0.04102500155568123
          0.018000999465584755 -0.11769499629735947 -0.04008999839425087 0.017520999535918236 -0.11884500086307526 -0.04171400144696236
          0.01621999964118004 -0.11348000168800354 -0.03864699974656105 0.018410999327898026 -0.11354999989271164 -0.03946699947118759
          0.0192050002515316 -0.11538299918174744 -0.04007500037550926 0.012883000075817108 -0.11309099942445755 -0.03916599974036217
          0.013067999854683876 -0.1177389994263649 -0.04166200011968613 0.008725999854505062 -0.10910899937152863 -0.040509000420570374
          0.013584000058472157 -0.11833299696445465 -0.04168400168418884 0.014898999594151974 -0.11912599951028824 -0.04250200092792511
          0.018897999078035355 -0.11715299636125565 -0.04076699912548065 0.018888000398874283 -0.11672999709844589 -0.042743001133203506
          0.017059000208973885 -0.11785899847745895 -0.04467200115323067 0.014928000047802925 -0.11840099841356277 -0.044815000146627426
          0.013759000226855278 -0.11284799873828888 -0.038864001631736755 0.01444500032812357 -0.11258800327777863 -0.03884299844503403
          0.016334999352693558 -0.11218199878931046 -0.039608001708984375 0.018590999767184258 -0.1134369969367981 -0.04178300127387047
          0.019332999363541603 -0.11521299928426743 -0.04213099926710129 0.014550999738276005 -0.1120539978146553 -0.039767999202013016
          0.009335000067949295 -0.1065329983830452 -0.038169000297784805 0.01028900034725666 -0.10641399770975113 -0.03815599903464317
          0.013066999614238739 -0.11736399680376053 -0.04234899953007698 0.002862999914214015 -0.09794999659061432 -0.03787500038743019
          0.004112000111490488 -0.10262399911880493 -0.04153800010681152 0.0072639998979866505 -0.10182300209999084 -0.037071000784635544
          0.012695999816060066 -0.11679700016975403 -0.04447900131344795 0.013379000127315521 -0.11823900043964386 -0.042493000626564026
          0.013914999552071095 -0.1180810034275055 -0.044721998274326324 0.01856900006532669 -0.11565600335597992 -0.044411998242139816
          0.01876400038599968 -0.11636599898338318 -0.04659099876880646 0.017116999253630638 -0.11793799698352814 -0.04737500101327896
          0.014876999892294407 -0.11845800280570984 -0.045983001589775085 0.016106000170111656 -0.11823400110006332 -0.047634001821279526
          0.016820000484585762 -0.11209599673748016 -0.04144100099802017 0.015110000036656857 -0.11148600280284882 -0.04154299944639206
          0.01806800067424774 -0.11327599734067917 -0.04402000084519386 0.012171999551355839 -0.10777699947357178 -0.038878001272678375
          0.01016900036484003 -0.10395800322294235 -0.037438999861478806 0.00546600017696619 -0.0970500037074089 -0.03534499928355217
          0.000493000028654933 -0.09477599710226059 -0.036093998700380325 0.0022440000902861357 -0.09800899773836136 -0.038968998938798904
          0.00004199999966658652 -0.09468699991703033 -0.037365999072790146 0.0020439999643713236 -0.09790199995040894 -0.041161999106407166
          0.006262000184506178 -0.10471600294113159 -0.044078998267650604 0.0092569999396801 -0.10160999745130539 -0.0370590016245842
          0.01258500013500452 -0.11431699991226196 -0.04665699973702431 0.013968000188469887 -0.11731699854135513 -0.0477290004491806
          0.012198000214993954 -0.11279900372028351 -0.04686100035905838 0.01913600042462349 -0.11441700160503387 -0.04640299826860428
          0.018247000873088837 -0.1162479966878891 -0.048712000250816345 0.017633000388741493 -0.11700399965047836 -0.048530999571084976
          0.015166000463068485 -0.11809200048446655 -0.04814299941062927 0.016036000102758408 -0.11794999986886978 -0.04823800176382065
          0.01720299944281578 -0.11262500286102295 -0.04390399903059006 0.014818999916315079 -0.11071900278329849 -0.045572999864816666
          0.009681000374257565 -0.10204199701547623 -0.04585999995470047 0.017463000491261482 -0.11226899921894073 -0.04826200008392334
          0.0005150000215508044 -0.09333699941635132 -0.03517699986696243 0.0034169999416917562 -0.09149400144815445 -0.03217199817299843
          0.006105000153183937 -0.09314700216054916 -0.033948998898267746 0.0072119999676942825 -0.09658700227737427 -0.035468000918626785
          -0.0005579999997280538 -0.09347400069236755 -0.03683900088071823 -0.0023219999857246876 -0.09013999998569489 -0.0384799987077713
          -0.0015790000325068831 -0.09127900004386902 -0.040130000561475754 -0.0009720000089146197 -0.0908140018582344 -0.042413998395204544
          0.009650999680161476 -0.10725100338459015 -0.046525999903678894 0.0023270000237971544 -0.09252200275659561 -0.04409699887037277
          0.007693000137805939 -0.09182900190353394 -0.03517499938607216 0.007639999967068434 -0.09421099722385406 -0.04256699979305267
          0.012643000110983849 -0.1143999993801117 -0.047224000096321106 0.012400999665260315 -0.113086998462677 -0.04732999950647354
          0.015041000209748745 -0.11705199629068375 -0.04867599904537201 0.012134999968111515 -0.11174900084733963 -0.04729500040411949
          0.012501000426709652 -0.11189299821853638 -0.047704000025987625 0.018689999356865883 -0.11432100087404251 -0.04866499826312065
          0.017712999135255814 -0.11580400168895721 -0.049268998205661774 0.013682999648153782 -0.11033499985933304 -0.04709000140428543
          0.015306999906897545 -0.11074300110340118 -0.04779500141739845 0.006777000147849321 -0.09501100331544876 -0.04462900012731552
          0.01679999940097332 -0.11265400052070618 -0.04892199859023094 0.0011249999515712261 -0.09047800302505493 -0.031651999801397324
          -0.0005460000247694552 -0.09148500114679337 -0.034049998968839645 0.003111999947577715 -0.0906360000371933 -0.03138900175690651
          0.004974000155925751 -0.0881740003824234 -0.030970999971032143 0.006874999962747097 -0.09002599865198135 -0.03301599994301796
          -0.002245000097900629 -0.09003700315952301 -0.03999900072813034 -0.0021470000501722097 -0.08776800334453583 -0.03925099968910217
          -0.00203699991106987 -0.08704199641942978 -0.04116399958729744 -0.002128999913111329 -0.08849000185728073 -0.04063799977302551
          -0.0017049999441951513 -0.08750999718904495 -0.03587900102138519 -0.0017389999702572823 -0.08945100009441376 -0.041147999465465546
          -0.0017059999518096447 -0.08903499692678452 -0.04214699938893318 0.0010339999571442604 -0.09015499800443649 -0.04435399919748306
          0.012450999580323696 -0.11096099764108658 -0.04771199822425842 0.004728999920189381 -0.09180200099945068 -0.04446600005030632
          0.0077309999614953995 -0.08661200106143951 -0.03409799933433533 0.005654999986290932 -0.09152600169181824 -0.04435500130057335
          0.0061160000041127205 -0.08538799732923508 -0.04365500062704086 0.013267000205814838 -0.1137010008096695 -0.047974999994039536
          0.013593999668955803 -0.11191000044345856 -0.04837999865412712 0.017896000295877457 -0.1142520010471344 -0.049258001148700714
          0.0006949999951757491 -0.08957699686288834 -0.03156999871134758 0.001711999997496605 -0.08958099782466888 -0.031011000275611877
          0.002581000095233321 -0.08882799744606018 -0.030604999512434006 0.004393999930471182 -0.08636800199747086 -0.030926000326871872
          0.005942000076174736 -0.08559899777173996 -0.031619999557733536 0.006500000134110451 -0.08778999745845795 -0.03179499879479408
          -0.0003060000017285347 -0.08410900086164474 -0.04332200065255165 -0.001534000039100647 -0.08578299731016159 -0.04238399863243103
          0.005781999789178371 -0.08361200243234634 -0.0346749983727932 0.00007599999662488699 -0.08725900202989578 -0.032333001494407654
          0.001108999946154654 -0.08566299825906754 -0.032572001218795776 -0.0011109999613836408 -0.08738899976015091 -0.043515000492334366
          0.002087000058963895 -0.08862899988889694 -0.04505399987101555 0.007129000034183264 -0.08484400063753128 -0.033918000757694244
          0.003512999974191189 -0.08354199677705765 -0.044498998671770096 0.005148999858647585 -0.08361399918794632 -0.0434579998254776
          0.006630000192672014 -0.08429499715566635 -0.03635599836707115 0.0014260000316426158 -0.08869300037622452 -0.031029000878334045
          0.0010890000266954303 -0.08691500127315521 -0.03177500143647194 0.003836000105366111 -0.0847489982843399 -0.031964998692274094
          0.005061999894678593 -0.08412300050258636 -0.032882001250982285 0.002827000105753541 -0.082566998898983 -0.04215399920940399
          0.0002300000051036477 -0.0852930024266243 -0.04442699998617172 0.0010760000441223383 -0.08317500352859497 -0.04364600032567978
          0.003969000186771154 -0.0843380019068718 -0.03304300084710121 0.005016000010073185 -0.08308900147676468 -0.03821999952197075
          0.002563999965786934 -0.08381599932909012 -0.04464900121092796 0.0027459999546408653 -0.08262699842453003 -0.043490998446941376
          0.003949000034481287 -0.08271300047636032 -0.04254499822854996
          <InformationKey name="L2_NORM_RANGE" location="vtkDataArray" length="2">
            <Value index="0">
              0.090462860129
            </Value>
            <Value index="1">
              0.12848221817
            </Value>
          </InformationKey>
        </DataArray>
      </Points>
      <Verts>
        <DataArray type="Int64" Name="connectivity" format="ascii" RangeMin="1e+299" RangeMax="-1e+299">
        </DataArray>
        <DataArray type="Int64" Name="offsets" format="ascii" RangeMin="1e+299" RangeMax="-1e+299">
        </DataArray>
      </Verts>
      <Lines>
        <DataArray type="Int64" Name="connectivity" format="ascii" RangeMin="1e+299" RangeMax="-1e+299">
        </DataArray>
        <DataArray type="Int64" Name="offsets" format="ascii" RangeMin="1e+299" RangeMax="-1e+299">
        </DataArray>
      </Lines>
      <Strips>
        <DataArray type="Int64" Name="connectivity" format="ascii" RangeMin="1e+299" RangeMax="-1e+299">
        </DataArray>
        <DataArray type="Int64" Name="offsets" format="ascii" RangeMin="1e+299" RangeMax="-1e+299">
        </DataArray>
      </Strips>
      <Polys>
        <DataArray type="Int32" Name="connectivity" format="ascii" RangeMin="0" RangeMax="136">
          0 1 2 2 3 0
          3 4 0 4 5 0
          6 1 0 7 0 5
          6 0 7 8 2 1
          8 1 9 1 10 9
          10 1 6 8 11 2
          11 3 2 12 4 3
          12 3 13 13 3 11
          14 4 12 5 4 14
          15 5 14 7 5 15
          16 10 6 16 6 7
          16 7 17 7 18 17
          18 7 19 19 7 15
          20 8 21 22 21 8
          11 8 20 9 22 8
          9 10 23 22 9 23
          24 23 10 10 16 24
          20 25 11 11 26 13
          26 11 27 11 25 27
          14 12 28 12 13 28
          29 30 13 26 31 13
          29 13 31 28 13 32
          30 32 13 28 33 14
          33 15 14 15 33 34
          34 19 15 17 24 16
          17 18 35 24 17 35
          18 36 35 36 18 37
          18 38 39 18 39 37
          19 38 18 19 34 38
          21 25 20 25 21 22
          22 23 40 25 22 41
          40 41 22 23 42 40
          42 23 24 42 24 35
          43 25 41 25 43 27
          27 44 26 31 26 44
          43 44 27 32 33 28
          45 29 31 46 29 45
          47 30 29 48 47 29
          48 29 46 30 49 50
          30 47 49 32 30 50
          51 45 31 31 44 51
          32 52 53 32 53 33
          32 50 54 54 52 32
          34 33 53 34 53 38
          36 55 35 35 55 42
          36 56 55 56 36 37
          37 39 57 56 37 57
          58 38 53 58 39 38
          59 57 39 59 39 58
          41 40 60 42 60 40
          61 62 41 43 41 62
          61 41 60 42 63 60
          63 42 55 51 43 62
          51 44 43 64 45 65
          64 46 45 66 65 45
          67 66 45 67 45 51
          46 64 68 68 48 46
          48 49 47 69 48 68
          69 49 48 69 70 49
          71 50 49 71 49 70
          50 62 72 50 71 73
          73 62 50 54 50 72
          74 51 75 62 75 51
          67 51 74 76 52 77
          53 52 76 54 77 52
          78 53 76 78 58 53
          54 72 79 80 77 54
          80 54 79 55 56 81
          81 63 55 56 82 81
          56 57 82 57 59 82
          78 59 58 78 82 59
          61 60 63 62 61 83
          61 63 84 84 83 61
          62 73 85 62 83 72
          75 62 85 81 86 63
          84 63 86 87 64 65
          88 68 64 64 87 88
          65 89 87 90 89 65
          90 65 91 65 66 91
          74 66 67 91 66 74
          88 69 68 69 92 70
          69 93 94 92 69 95
          69 94 95 93 69 96
          69 88 96 70 97 98
          70 92 97 98 71 70
          99 71 98 73 71 99
          72 100 79 72 83 100
          73 101 85 99 101 73
          102 74 75 91 74 102
          103 75 85 75 103 104
          75 104 102 76 77 80
          105 78 76 105 76 80
          82 78 105 100 80 79
          80 100 106 105 80 106
          107 86 81 107 81 82
          107 82 105 83 84 100
          84 106 100 86 106 84
          103 85 101 107 105 86
          105 106 86 108 88 87
          109 108 87 87 89 109
          96 88 108 109 89 110
          110 89 90 111 90 112
          90 91 113 110 90 111
          113 112 90 91 102 113
          95 97 92 93 114 115
          115 94 93 93 96 116
          93 116 114 94 98 95
          94 115 98 98 97 95
          96 108 117 96 118 116
          118 96 117 98 119 99
          115 119 98 99 120 101
          99 119 120 101 120 103
          102 104 121 102 121 113
          122 104 103 122 103 120
          122 123 104 123 124 104
          121 104 124 125 117 108
          125 108 109 110 125 109
          125 110 126 111 126 110
          126 111 127 111 112 127
          128 127 112 121 112 113
          112 121 128 114 119 115
          129 114 116 130 119 114
          114 131 130 129 131 114
          118 132 116 116 121 133
          116 128 121 116 133 129
          128 116 132 118 117 126
          126 117 125 127 118 126
          118 127 132 119 130 120
          134 120 130 134 122 120
          124 133 121 134 131 122
          135 122 131 135 136 122
          123 122 136 123 136 124
          133 124 136 127 128 132
          131 129 135 129 136 135
          133 136 129 131 134 130
        </DataArray>
        <DataArray type="Int32" Name="offsets" format="ascii" RangeMin="3" RangeMax="810">
          3 6 9 12 15 18
          21 24 27 30 33 36
          39 42 45 48 51 54
          57 60 63 66 69 72
          75 78 81 84 87 90
          93 96 99 102 105 108
          111 114 117 120 123 126
          129 132 135 138 141 144
          147 150 153 156 159 162
          165 168 171 174 177 180
          183 186 189 192 195 198
          201 204 207 210 213 216
          219 222 225 228 231 234
          237 240 243 246 249 252
          255 258 261 264 267 270
          273 276 279 282 285 288
          291 294 297 300 303 306
          309 312 315 318 321 324
          327 330 333 336 339 342
          345 348 351 354 357 360
          363 366 369 372 375 378
          381 384 387 390 393 396
          399 402 405 408 411 414
          417 420 423 426 429 432
          435 438 441 444 447 450
          453 456 459 462 465 468
          471 474 477 480 483 486
          489 492 495 498 501 504
          507 510 513 516 519 522
          525 528 531 534 537 540
          543 546 549 552 555 558
          561 564 567 570 573 576
          579 582 585 588 591 594
          597 600 603 606 609 612
          615 618 621 624 627 630
          633 636 639 642 645 648
          651 654 657 660 663 666
          669 672 675 678 681 684
          687 690 693 696 699 702
          705 708 711 714 717 720
          723 726 729 732 735 738
          741 744 747 750 753 756
          759 762 765 768 771 774
          777 780 783 786 789 792
          795 798 801 804 807 810
        </DataArray>
      </Polys>
    </Piece>
  </PolyData>
</VTKFile>
