<?xml version="1.0"?>
<VTKFile type="PolyData" version="0.1" byte_order="LittleEndian" header_type="UInt32" compressor="vtkZLibDataCompressor">
  <PolyData>
    <Piece NumberOfPoints="212" NumberOfVerts="0" NumberOfLines="0" NumberOfStrips="0" NumberOfPolys="424">
      <PointData Normals="Normals">
        <DataArray type="Float32" Name="Normals" NumberOfComponents="3" format="ascii" RangeMin="0.9999994178297202" RangeMax="1.000000596362394">
          -0.05634799972176552 -0.9984109997749329 0 0.3688940107822418 -0.905709981918335 -0.20882199704647064
          0.6484330296516418 -0.7612720131874084 0 0.5523210167884827 -0.6127309799194336 -0.5652459859848022
          0.28105399012565613 -0.3521899878978729 -0.8927320241928101 -0.9339669942855835 -0.35735899209976196 0
          -0.7702400088310242 -0.6375219821929932 0.017193999141454697 -0.9155529737472534 -0.28786700963974 -0.28088200092315674
          -0.29001298546791077 -0.2763589918613434 -0.9162520170211792 0.3688940107822418 -0.905709981918335 0.20882199704647064
          0.5523210167884827 -0.6127309799194336 0.5652459859848022 0.28105399012565613 -0.3521899878978729 0.8927320241928101
          -0.7702400088310242 -0.6375219821929932 -0.017193999141454697 -0.9155539870262146 -0.28786298632621765 0.2808839976787567
          -0.29001298546791077 -0.2763589918613434 0.9162520170211792 0.9636639952659607 -0.05147700011730194 -0.26210999488830566
          0.9923269748687744 -0.1236409991979599 0 0.9636639952659607 -0.05147700011730194 0.26210999488830566
          0.5982469916343689 0.3283129930496216 -0.7309659719467163 0.23001399636268616 0.3152469992637634 -0.9207130074501038
          -0.9970459938049316 0.02932099997997284 0.07098700106143951 -0.9974420070648193 0.07147499918937683 0
          -0.9970459938049316 0.02932099997997284 -0.07098700106143951 -0.817156970500946 -0.06749100238084793 -0.5724509954452515
          -0.33889299631118774 0.32012999057769775 -0.8846859931945801 -0.9916470050811768 -0.049695998430252075 0.11902599781751633
          0.5982469916343689 0.3283129930496216 0.7309659719467163 0.23001399636268616 0.3152469992637634 0.9207130074501038
          -0.3388940095901489 0.32013198733329773 0.8846840262413025 -0.8171560168266296 -0.0674860030412674 0.5724520087242126
          -0.9916480183601379 -0.04968800023198128 -0.11901699751615524 0.9024029970169067 0.17275500297546387 -0.3947469890117645
          0.9758780002593994 0.2183160036802292 0 0.9024029970169067 0.17275500297546387 0.3947469890117645
          0.6033009886741638 0.12553100287914276 -0.7875720262527466 0.206278994679451 0.11905500292778015 -0.971222996711731
          -0.9594100117683411 -0.09100999683141708 0.26692700386047363 -0.9910789728164673 -0.13327500224113464 0.0000019999999949504854
          -0.9594110250473022 -0.09100700169801712 -0.2669239938259125 -0.1399340033531189 -0.5874419808387756 -0.7970759868621826
          -0.10049200057983398 -0.06171000003814697 -0.9930220246315002 -0.7219619750976562 -0.5159900188446045 0.46100398898124695
          0.6033009886741638 0.12553100287914276 0.7875720262527466 0.206278994679451 0.11905500292778015 0.971222996711731
          -0.100491002202034 -0.061709001660346985 0.9930220246315002 -0.13993200659751892 -0.587444007396698 0.7970749735832214
          -0.7219700217247009 -0.5159890055656433 -0.46099400520324707 0.9135580062866211 -0.13300800323486328 -0.3843440115451813
          0.9981619715690613 -0.06059399992227554 0 0.9135580062866211 -0.13300800323486328 0.3843440115451813
          0.5594450235366821 -0.23104700446128845 -0.7960140109062195 0.21519500017166138 -0.2652199864387512 -0.9398670196533203
          -0.9581019878387451 -0.09118899703025818 0.27152401208877563 -0.39829200506210327 -0.009837999939918518 0.9172059893608093
          -0.9980720281600952 -0.06207500025629997 0.000004999999873689376 -0.9581009745597839 -0.09118899703025818 -0.2715269923210144
          -0.3982889950275421 -0.009836000390350819 -0.9172070026397705 0.13897199928760529 -0.021462000906467438 -0.9900640249252319
          0.009220000356435776 -0.2766200006008148 -0.9609349966049194 -0.13824599981307983 -0.7531579732894897 -0.6431499719619751
          -0.027796000242233276 -0.9651709794998169 -0.260140985250473 0.5329710245132446 -0.44005900621414185 -0.7226970195770264
          0.7105429768562317 0.17661599814891815 0.6811280250549316 0.5594450235366821 -0.23104700446128845 0.7960140109062195
          0.21519500017166138 -0.2652199864387512 0.9398670196533203 0.009220999665558338 -0.276621013879776 0.9609349966049194
          0.13897299766540527 -0.0214610006660223 0.9900630116462708 -0.027797000482678413 -0.9651709794998169 0.260140985250473
          -0.13824500143527985 -0.7531560063362122 0.6431509852409363 0.5329679846763611 -0.44005799293518066 0.722698986530304
          0.7105420231819153 0.17661699652671814 -0.6811280250549316 0.9386280179023743 -0.037473998963832855 -0.3428890109062195
          0.999288022518158 -0.0377190001308918 0 0.9386280179023743 -0.037473998963832855 0.3428890109062195
          0.6061069965362549 -0.1938129961490631 -0.7714080214500427 0.17926399409770966 -0.29629701375961304 -0.9381219744682312
          -0.42808499932289124 0.8104919791221619 0.3998059928417206 -0.19815200567245483 -0.01907999999821186 0.9799860119819641
          -0.6812989711761475 0.7320050001144409 0 -0.4280869960784912 0.8104910254478455 -0.39980700612068176
          -0.1981460005044937 -0.01908300071954727 -0.9799870252609253 -0.18102499842643738 0.21132799983024597 -0.9605050086975098
          -0.08291800320148468 -0.17775900661945343 -0.9805750250816345 0.42826899886131287 0.6639500260353088 -0.6129900217056274
          -0.48993000388145447 -0.6126030087471008 -0.6202309727668762 -0.6624040007591248 -0.3123379945755005 -0.6809300184249878
          -0.427947998046875 -0.7824749946594238 -0.45232000946998596 0.8409720063209534 -0.33489400148391724 -0.42498499155044556
          -0.1668200045824051 -0.979781985282898 -0.11044199764728546 0.7903259992599487 0.016628999263048172 -0.6124600172042847
          0.8972319960594177 -0.169964998960495 0.4075370132923126 0.9637560248374939 0.26678600907325745 0
          -0.4377500116825104 0.8990970253944397 0 -0.37856099009513855 0.4876849949359894 0.7866740226745605
          0.6061069965362549 -0.1938129961490631 0.7714080214500427 0.17926399409770966 -0.29629701375961304 0.9381219744682312
          -0.08291800320148468 -0.17775900661945343 0.9805750250816345 -0.18102499842643738 0.21132799983024597 0.9605050086975098
          0.4282670021057129 0.6639509797096252 0.6129890084266663 -0.6624040007591248 -0.3123379945755005 0.6809300184249878
          -0.48993000388145447 -0.6126030087471008 0.6202309727668762 -0.42795100808143616 -0.7824749946594238 0.452318012714386
          0.8409720063209534 -0.33489400148391724 0.42498499155044556 0.7903239727020264 0.016631999984383583 0.6124640107154846
          -0.16682399809360504 -0.9797809720039368 0.11044400185346603 0.8972319960594177 -0.169964998960495 -0.4075370132923126
          -0.37856099009513855 0.4876849949359894 -0.7866740226745605 0.6756029725074768 0.6716579794883728 -0.3040339946746826
          0.7573660016059875 0.652990996837616 0 0.6756029725074768 0.6716579794883728 0.3040339946746826
          0.4791739881038666 0.7151370048522949 -0.5088919997215271 0.22988000512123108 0.5010219812393188 -0.8343459963798523
          -0.12781399488449097 0.46066200733184814 -0.8783249855041504 0.312485009431839 0.8662580251693726 -0.38980698585510254
          0.03334200009703636 0.9782310128211975 0.20482300221920013 -0.5514919757843018 0.599245011806488 0.5803130269050598
          0.007170000113546848 0.9999740123748779 0 -0.1818690001964569 0.8919230103492737 -0.4140009880065918
          0.03334200009703636 0.9782310128211975 -0.20482300221920013 0.312485009431839 0.8662580251693726 0.38980698585510254
          -0.5514919757843018 0.599245011806488 -0.5803130269050598 -0.1818690001964569 0.8919230103492737 0.4140009880065918
          -0.2154030054807663 0.7568770051002502 -0.6170409917831421 0.42765098810195923 0.7329080104827881 -0.5291129946708679
          -0.04005799815058708 0.01592699997127056 -0.9990699887275696 -0.8233019709587097 0.23907800018787384 -0.5147960186004639
          -0.4507569968700409 -0.5516700148582458 -0.7017679810523987 -0.6745759844779968 -0.4156300127506256 0.6100810170173645
          -0.9205679893493652 0.15945400297641754 0.35655200481414795 -0.07368099689483643 0.5944809913635254 -0.8007270097732544
          -0.2562029957771301 0.6206309795379639 -0.7410650253295898 0.9499080181121826 -0.2043289989233017 -0.23648199439048767
          0.037758998572826385 0.11388999968767166 -0.9927759766578674 -0.7976319789886475 -0.5733090043067932 -0.18735100328922272
          0.2828119993209839 -0.17630800604820251 -0.9428319931030273 -0.9481059908866882 0.23486100137233734 0.2143229991197586
          0.8097670078277588 -0.3587450087070465 0.46430501341819763 0.919655978679657 -0.39272400736808777 0
          -0.48416000604629517 0.6038140058517456 -0.633243978023529 -0.6404550075531006 0.7679960131645203 0
          -0.8144479990005493 0.5360519886016846 -0.2220889925956726 -0.8919879794120789 0.3963080048561096 0.21747900545597076
          -0.48416000604629517 0.6038140058517456 0.633243978023529 -0.8144479990005493 0.5360519886016846 0.2220889925956726
          -0.8919879794120789 0.3963080048561096 -0.21747900545597076 -0.6970700025558472 0.3706760108470917 0.6137530207633972
          0.4791739881038666 0.7151370048522949 0.5088919997215271 0.22988000512123108 0.5010219812393188 0.8343459963798523
          -0.12781399488449097 0.46066200733184814 0.8783249855041504 -0.2154030054807663 0.7568770051002502 0.6170409917831421
          0.42765098810195923 0.7329080104827881 0.5291129946708679 -0.07368099689483643 0.5944809913635254 0.8007270097732544
          -0.4507569968700409 -0.5516700148582458 0.7017679810523987 -0.2562029957771301 0.6206309795379639 0.7410650253295898
          -0.8233050107955933 0.23907899856567383 0.5147910118103027 -0.04005799815058708 0.01592699997127056 0.9990699887275696
          -0.6745759844779968 -0.4156300127506256 -0.6100810170173645 -0.9205679893493652 0.15945400297641754 -0.35655200481414795
          0.9499080181121826 -0.2043289989233017 0.23648199439048767 0.037758998572826385 0.11388999968767166 0.9927759766578674
          0.2828119993209839 -0.17630800604820251 0.9428319931030273 -0.7976319789886475 -0.5733090043067932 0.18735100328922272
          -0.9481059908866882 0.23486100137233734 -0.2143229991197586 0.8097670078277588 -0.3587450087070465 -0.46430501341819763
          -0.6970700025558472 0.3706760108470917 -0.6137530207633972 -0.6728590130805969 0.5002239942550659 0.5450109839439392
          -0.3127950131893158 0.2915639877319336 0.903963029384613 -0.6728590130805969 0.5002239942550659 -0.5450109839439392
          -0.3127950131893158 0.2915639877319336 -0.903963029384613 -0.7640680074691772 -0.4043860137462616 -0.5026659965515137
          -0.726207971572876 0.23345699906349182 -0.6466220021247864 -0.849694013595581 -0.39792901277542114 -0.3459379971027374
          -0.794471025466919 0.5258709788322449 -0.30376899242401123 -0.6303189992904663 0.12358599901199341 -0.766435980796814
          -0.8743699789047241 -0.478410005569458 -0.08124899864196777 0.4865280091762543 -0.8604639768600464 -0.15130400657653809
          0.3676240146160126 -0.8038979768753052 0.4675480127334595 0.7870429754257202 -0.6168980002403259 0
          0.3676240146160126 -0.8038979768753052 -0.4675480127334595 -0.5560969710350037 0.46274301409721375 -0.6903809905052185
          -0.5135440230369568 0.3873330056667328 -0.7656670212745667 -0.7085630297660828 0.7056469917297363 0
          -0.5560969710350037 0.46274301409721375 0.6903809905052185 -0.5135430097579956 0.3873310089111328 0.7656679749488831
          -0.7944729924201965 0.5258679986000061 0.30376899242401123 -0.6303189992904663 0.12358599901199341 0.766435980796814
          -0.8743699789047241 -0.478410005569458 0.08124899864196777 -0.7262120246887207 0.2334579974412918 0.6466169953346252
          -0.7640730142593384 -0.4043799936771393 0.5026630163192749 -0.849694013595581 -0.39792901277542114 0.3459379971027374
          0.4865280091762543 -0.8604639768600464 0.15130400657653809 -0.4097970128059387 0.022081000730395317 -0.9119089841842651
          -0.46643200516700745 -0.8724150061607361 0.14605599641799927 -0.15780000388622284 -0.7075560092926025 -0.6888129711151123
          0.35355299711227417 -0.9354140162467957 0 -0.46643200516700745 -0.8724150061607361 -0.14605599641799927
          -0.15780000388622284 -0.7075560092926025 0.6888129711151123 -0.8067839741706848 0.5908470153808594 0
          -0.40979599952697754 0.022082999348640442 0.9119099974632263 -0.026844000443816185 0.1854889988899231 -0.9822800159454346
          -0.036375001072883606 -0.08091200143098831 -0.9960569739341736 0.11817099899053574 -0.6154360175132751 -0.7792779803276062
          -0.09210000187158585 -0.9957500100135803 0 0.11817099899053574 -0.6154360175132751 0.7792779803276062
          -0.036375001072883606 -0.08091200143098831 0.9960569739341736 -0.7541390061378479 -0.05561700090765953 -0.6543560028076172
          -0.9293069839477539 -0.3693070113658905 0 -0.7541390061378479 -0.05561700090765953 0.6543560028076172
          -0.026844000443816185 0.1854889988899231 0.9822800159454346 -0.335114985704422 -0.6049690246582031 -0.7222959995269775
          -0.7084130048751831 -0.7057979702949524 0 -0.335114985704422 -0.6049690246582031 0.7222959995269775
          <InformationKey name="L2_NORM_RANGE" location="vtkDataArray" length="2">
            <Value index="0">
              0.99999941783
            </Value>
            <Value index="1">
              1.0000005964
            </Value>
          </InformationKey>
        </DataArray>
      </PointData>
      <CellData>
      </CellData>
      <Points>
        <DataArray type="Float32" Name="Points" NumberOfComponents="3" format="ascii" RangeMin="0.036162776040272654" RangeMax="0.07944781605120005">
          0.018077999353408813 0.03993299975991249 0 0.034014999866485596 0.04141499847173691 -0.00927099958062172
          0.03146899864077568 0.03760800138115883 0 0.028946999460458755 0.041746001690626144 -0.01897300034761429
          0.020052000880241394 0.04134700074791908 -0.02369699999690056 0.00008099999831756577 0.04227900132536888 0
          0.00018000000272877514 0.04188999906182289 -0.0055680000223219395 -0.0002010000025620684 0.04227299988269806 -0.016493000090122223
          0.0054410002194345 0.04348599910736084 -0.02383499965071678 0.034014999866485596 0.04141499847173691 0.00927099958062172
          0.028946999460458755 0.041746001690626144 0.01897300034761429 0.020052000880241394 0.04134700074791908 0.02369699999690056
          0.00018000000272877514 0.04188999906182289 0.0055680000223219395 -0.0002010000025620684 0.04227299988269806 0.016493000090122223
          0.0054410002194345 0.04348599910736084 0.02383499965071678 0.03475699946284294 0.0425960011780262 -0.011134999804198742
          0.03465399891138077 0.043334998190402985 0 0.03475699946284294 0.0425960011780262 0.011134999804198742
          0.027400000020861626 0.044854000210762024 -0.018324000760912895 0.018864000216126442 0.04750800132751465 -0.022276999428868294
          0.0006259999936446548 0.047988999634981155 -0.00520800007507205 0.0006600000197067857 0.04783400148153305 0
          0.0006259999936446548 0.047988999634981155 0.00520800007507205 0.000645000021904707 0.04992600157856941 -0.016840999945998192
          0.007034000009298325 0.04659999907016754 -0.022444000467658043 -0.00041000000783242285 0.04966200143098831 -0.009944000281393528
          0.027400000020861626 0.044854000210762024 0.018324000760912895 0.018864000216126442 0.04750800132751465 0.022276999428868294
          0.007034000009298325 0.04659999907016754 0.022444000467658043 0.000645000021904707 0.04992600157856941 0.016840999945998192
          -0.00041000000783242285 0.04966200143098831 0.009944000281393528 0.03173999860882759 0.04930099844932556 -0.010839000344276428
          0.03319700062274933 0.04882799834012985 0 0.03173999860882759 0.04930099844932556 0.010839000344276428
          0.02580999955534935 0.05056300014257431 -0.01786400005221367 0.01889199949800968 0.052590999752283096 -0.020258000120520592
          0.0007740000146441162 0.0551999993622303 -0.006688999943435192 0.0013200000394135714 0.055254001170396805 0
          0.0007740000146441162 0.0551999993622303 0.006688999943435192 0.0020719999447464943 0.053644001483917236 -0.020082000643014908
          0.008317000232636929 0.05411500111222267 -0.021237000823020935 -0.0012799999676644802 0.055796001106500626 -0.010259999893605709
          0.02580999955534935 0.05056300014257431 0.01786400005221367 0.01889199949800968 0.052590999752283096 0.020258000120520592
          0.008317000232636929 0.05411500111222267 0.021237000823020935 0.0020719999447464943 0.053644001483917236 0.020082000643014908
          -0.0012799999676644802 0.055796001106500626 0.010259999893605709 0.03196699917316437 0.0591760016977787 -0.010455000214278698
          0.03352800011634827 0.060541000217199326 0 0.03196699917316437 0.0591760016977787 0.010455000214278698
          0.025483999401330948 0.059585001319646835 -0.018549999222159386 0.020034000277519226 0.05955899879336357 -0.020347999408841133
          -0.0011749999830499291 0.06241599842905998 -0.006910999771207571 -0.003360999980941415 0.06285800039768219 -0.010727999731898308
          -0.000371000001905486 0.06256300210952759 0 -0.0011749999830499291 0.06241599842905998 0.006910999771207571
          -0.003360999980941415 0.06285800039768219 0.010727999731898308 0.0035389999393373728 0.06064099818468094 -0.021807000041007996
          0.00880999956279993 0.05964700132608414 -0.021385999396443367 -0.0015180000336840749 0.05634099990129471 -0.02218800038099289
          -0.004701000172644854 0.052914999425411224 -0.018091000616550446 -0.0036949999630451202 0.0602170005440712 -0.02653999999165535
          -0.010366000235080719 0.05825100094079971 -0.003911000210791826 0.025483999401330948 0.059585001319646835 0.018549999222159386
          0.020034000277519226 0.05955899879336357 0.020347999408841133 0.00880999956279993 0.05964700132608414 0.021385999396443367
          0.0035389999393373728 0.06064099818468094 0.021807000041007996 -0.004701000172644854 0.052914999425411224 0.018091000616550446
          -0.0015180000336840749 0.05634099990129471 0.02218800038099289 -0.0036949999630451202 0.0602170005440712 0.02653999999165535
          -0.010366000235080719 0.05825100094079971 0.003911000210791826 0.03348600119352341 0.06470999866724014 -0.01157000008970499
          0.03416699916124344 0.06519699841737747 0 0.03348600119352341 0.06470999866724014 0.01157000008970499
          0.027698999270796776 0.06406699866056442 -0.01963699981570244 0.020880000665783882 0.06324099749326706 -0.02250399999320507
          -0.0016570000443607569 0.07086700201034546 -0.008822999894618988 -0.0025210001040250063 0.06882999837398529 -0.01152000017464161
          0.00016399999731220305 0.06984300166368484 0 -0.0016570000443607569 0.07086700201034546 0.008822999894618988
          -0.0025210001040250063 0.06882999837398529 0.01152000017464161 0.0024870000779628754 0.06571699678897858 -0.021069999784231186
          0.011323000304400921 0.0647369995713234 -0.02359900064766407 -0.004486000165343285 0.06695599853992462 -0.02112399972975254
          -0.01193000003695488 0.05768999829888344 -0.018198000267148018 -0.01358800008893013 0.0626859962940216 -0.024501999840140343
          -0.008481999859213829 0.05516599863767624 -0.02621299959719181 -0.006940999999642372 0.04970100149512291 -0.011134999804198742
          -0.009468999691307545 0.05773799866437912 -0.030672000721096992 -0.007805999834090471 0.0611720010638237 -0.03373999893665314
          -0.01056700013577938 0.045242998749017715 -0.005388000048696995 -0.010723999701440334 0.05659399926662445 0
          -0.019721999764442444 0.059974998235702515 0 -0.012369000352919102 0.06532999873161316 -0.008144999854266644
          0.027698999270796776 0.06406699866056442 0.01963699981570244 0.020880000665783882 0.06324099749326706 0.02250399999320507
          0.011323000304400921 0.0647369995713234 0.02359900064766407 0.0024870000779628754 0.06571699678897858 0.021069999784231186
          -0.004486000165343285 0.06695599853992462 0.02112399972975254 -0.01358800008893013 0.0626859962940216 0.024501999840140343
          -0.01193000003695488 0.05768999829888344 0.018198000267148018 -0.008481999859213829 0.05516599863767624 0.02621299959719181
          -0.006940999999642372 0.04970100149512291 0.011134999804198742 -0.007805999834090471 0.0611720010638237 0.03373999893665314
          -0.009468999691307545 0.05773799866437912 0.030672000721096992 -0.01056700013577938 0.045242998749017715 0.005388000048696995
          -0.012369000352919102 0.06532999873161316 0.008144999854266644 0.0316459983587265 0.06999699771404266 -0.011781999841332436
          0.03256699815392494 0.07030200213193893 0 0.0316459983587265 0.06999699771404266 0.011781999841332436
          0.027573000639677048 0.06967999786138535 -0.01990699954330921 0.019849000498652458 0.0696839988231659 -0.023592999204993248
          0.009844999760389328 0.06889799982309341 -0.02374500036239624 -0.004139999859035015 0.06908100098371506 -0.014914999715983868
          -0.010414999909698963 0.07594799995422363 -0.016930999234318733 -0.010358000174164772 0.0728050023317337 -0.01063000038266182
          0.017114000394940376 0.07010900229215622 0 0.000446999998530373 0.07036300003528595 -0.018112000077962875
          -0.010414999909698963 0.07594799995422363 0.016930999234318733 -0.004139999859035015 0.06908100098371506 0.014914999715983868
          -0.010358000174164772 0.0728050023317337 0.01063000038266182 0.000446999998530373 0.07036300003528595 0.018112000077962875
          -0.00993799977004528 0.06759899854660034 -0.030108999460935593 -0.00863999966531992 0.07117900252342224 -0.0194729994982481
          -0.015451000072062016 0.05028799921274185 -0.016388000920414925 -0.020378999412059784 0.04859999939799309 -0.013384000398218632
          -0.019269000738859177 0.06459099799394608 -0.022346999496221542 -0.019881999120116234 0.06314100325107574 -0.01500600017607212
          -0.017575999721884727 0.06145400181412697 -0.013415999710559845 -0.018478000536561012 0.0744670033454895 -0.02061999961733818
          -0.013032999821007252 0.06949800252914429 -0.022533999755978584 -0.008280999958515167 0.042555999010801315 -0.01269300002604723
          -0.020488999783992767 0.043928999453783035 -0.01806199923157692 -0.013939999975264072 0.05917400121688843 -0.0340379998087883
          -0.012009000405669212 0.0616689994931221 -0.03732600063085556 -0.014569000340998173 0.06739500164985657 -0.034515999257564545
          -0.011080999858677387 0.039329998195171356 -0.007075000088661909 -0.013883999548852444 0.04651099815964699 0
          -0.02114900015294552 0.055907998234033585 -0.005224000196903944 -0.030282000079751015 0.05213100090622902 0
          -0.016961999237537384 0.054572999477386475 -0.008771000429987907 -0.016611000522971153 0.05956599861383438 -0.011001000180840492
          -0.02114900015294552 0.055907998234033585 0.005224000196903944 -0.016961999237537384 0.054572999477386475 0.008771000429987907
          -0.016611000522971153 0.05956599861383438 0.011001000180840492 -0.013520999811589718 0.06596300005912781 -0.012002999894320965
          0.027573000639677048 0.06967999786138535 0.01990699954330921 0.019849000498652458 0.0696839988231659 0.023592999204993248
          0.009844999760389328 0.06889799982309341 0.02374500036239624 -0.00993799977004528 0.06759899854660034 0.030108999460935593
          -0.00863999966531992 0.07117900252342224 0.0194729994982481 -0.018478000536561012 0.0744670033454895 0.02061999961733818
          -0.019269000738859177 0.06459099799394608 0.022346999496221542 -0.013032999821007252 0.06949800252914429 0.022533999755978584
          -0.020378999412059784 0.04859999939799309 0.013384000398218632 -0.015451000072062016 0.05028799921274185 0.016388000920414925
          -0.019881999120116234 0.06314100325107574 0.01500600017607212 -0.017575999721884727 0.06145400181412697 0.013415999710559845
          -0.008280999958515167 0.042555999010801315 0.01269300002604723 -0.020488999783992767 0.043928999453783035 0.01806199923157692
          -0.012009000405669212 0.0616689994931221 0.03732600063085556 -0.013939999975264072 0.05917400121688843 0.0340379998087883
          -0.014569000340998173 0.06739500164985657 0.034515999257564545 -0.011080999858677387 0.039329998195171356 0.007075000088661909
          -0.013520999811589718 0.06596300005912781 0.012002999894320965 -0.02483700029551983 0.07100500166416168 -0.017280999571084976
          -0.017702000215649605 0.06817100197076797 -0.01473500020802021 -0.02483700029551983 0.07100500166416168 0.017280999571084976
          -0.017702000215649605 0.06817100197076797 0.01473500020802021 -0.023767000064253807 0.04025699943304062 -0.01027700025588274
          -0.023228999227285385 0.04542899876832962 -0.010861000046133995 -0.020910000428557396 0.03635599836707115 -0.017806999385356903
          -0.02007099986076355 0.05097400024533272 -0.009358000010251999 -0.022941000759601593 0.06925699859857559 -0.022856000810861588
          -0.02507700026035309 0.06667300313711166 -0.01775299943983555 -0.013186000287532806 0.030577000230550766 -0.01410400029271841
          -0.014144999906420708 0.03679100051522255 -0.005619999952614307 -0.01713000051677227 0.04060899838805199 0
          -0.014144999906420708 0.03679100051522255 0.005619999952614307 -0.025662999600172043 0.05116700008511543 -0.0044109998270869255
          -0.029319999739527702 0.04693499952554703 -0.0042929998598992825 -0.04047999903559685 0.04907499998807907 0
          -0.025662999600172043 0.05116700008511543 0.0044109998270869255 -0.029319999739527702 0.04693499952554703 0.0042929998598992825
          -0.02007099986076355 0.05097400024533272 0.009358000010251999 -0.022941000759601593 0.06925699859857559 0.022856000810861588
          -0.02507700026035309 0.06667300313711166 0.01775299943983555 -0.023228999227285385 0.04542899876832962 0.010861000046133995
          -0.023767000064253807 0.04025699943304062 0.01027700025588274 -0.020910000428557396 0.03635599836707115 0.017806999385356903
          -0.013186000287532806 0.030577000230550766 0.01410400029271841 -0.02984599955379963 0.042024001479148865 -0.004482000134885311
          -0.0197720006108284 0.0369889996945858 -0.008077000267803669 -0.02527100034058094 0.03865699842572212 -0.005259000230580568
          -0.025469999760389328 0.033013999462127686 0 -0.0197720006108284 0.0369889996945858 0.008077000267803669
          -0.02527100034058094 0.03865699842572212 0.005259000230580568 -0.04301900044083595 0.04383400082588196 0
          -0.02984599955379963 0.042024001479148865 0.004482000134885311 -0.033959999680519104 0.03867499902844429 -0.004883999936282635
          -0.0306209996342659 0.035955000668764114 -0.004902000073343515 -0.03231700137257576 0.03169099986553192 -0.00380500010214746
          -0.03433600068092346 0.031019000336527824 0 -0.03231700137257576 0.03169099986553192 0.00380500010214746
          -0.0306209996342659 0.035955000668764114 0.004902000073343515 -0.04127499833703041 0.038357000797986984 -0.004945999942719936
          -0.04233299940824509 0.0367560014128685 0 -0.04127499833703041 0.038357000797986984 0.004945999942719936
          -0.033959999680519104 0.03867499902844429 0.004883999936282635 -0.03959999978542328 0.034262001514434814 -0.005762999877333641
          -0.03864999860525131 0.03210899978876114 0 -0.03959999978542328 0.034262001514434814 0.005762999877333641
          <InformationKey name="L2_NORM_RANGE" location="vtkDataArray" length="2">
            <Value index="0">
              0.03616277604
            </Value>
            <Value index="1">
              0.079447816051
            </Value>
          </InformationKey>
        </DataArray>
      </Points>
      <Verts>
        <DataArray type="Int64" Name="connectivity" format="ascii" RangeMin="1e+299" RangeMax="-1e+299">
        </DataArray>
        <DataArray type="Int64" Name="offsets" format="ascii" RangeMin="1e+299" RangeMax="-1e+299">
        </DataArray>
      </Verts>
      <Lines>
        <DataArray type="Int64" Name="connectivity" format="ascii" RangeMin="1e+299" RangeMax="-1e+299">
        </DataArray>
        <DataArray type="Int64" Name="offsets" format="ascii" RangeMin="1e+299" RangeMax="-1e+299">
        </DataArray>
      </Lines>
      <Strips>
        <DataArray type="Int64" Name="connectivity" format="ascii" RangeMin="1e+299" RangeMax="-1e+299">
        </DataArray>
        <DataArray type="Int64" Name="offsets" format="ascii" RangeMin="1e+299" RangeMax="-1e+299">
        </DataArray>
      </Strips>
      <Polys>
        <DataArray type="Int32" Name="connectivity" format="ascii" RangeMin="0" RangeMax="211">
          0 1 2 0 3 1
          0 4 3 0 5 6
          6 7 0 0 7 8
          8 4 0 2 9 0
          9 10 0 10 11 0
          12 5 0 0 13 12
          14 13 0 0 11 14
          2 1 15 15 1 3
          16 2 15 17 9 2
          17 2 16 18 15 3
          18 3 4 19 18 4
          19 4 8 20 6 5
          21 20 5 5 12 22
          5 22 21 6 20 7
          7 23 24 8 7 24
          25 23 7 20 25 7
          24 19 8 10 9 17
          10 17 26 11 10 26
          11 26 27 14 11 27
          13 22 12 28 29 13
          28 13 14 13 29 30
          13 30 22 14 27 28
          15 31 32 16 15 32