<?xml version="1.0"?>
<VTKFile type="PolyData" version="0.1" byte_order="LittleEndian" header_type="UInt32" compressor="vtkZLibDataCompressor">
  <PolyData>
    <Piece NumberOfPoints="212" NumberOfVerts="0" NumberOfLines="0" NumberOfStrips="0" NumberOfPolys="424">
      <PointData Normals="Normals">
        <DataArray type="Float32" Name="Normals" NumberOfComponents="3" format="ascii" RangeMin="0.9999993261002981" RangeMax="1.0000006299762796">
          0.3383220136165619 -0.9410300254821777 0 0.6857550144195557 -0.6977490186691284 -0.20709000527858734
          0.8833230137825012 -0.468764990568161 0 0.753387987613678 -0.38458898663520813 -0.5333840250968933
          0.4186689853668213 -0.23653900623321533 -0.8767930269241333 -0.9376720190048218 -0.34752199053764343 0
          -0.6505680084228516 -0.7592939734458923 0.015325999818742275 -0.8954030275344849 -0.3694060146808624 -0.24858300387859344
          -0.15884900093078613 -0.36159801483154297 -0.9187020063400269 0.6857560276985168 -0.6977480053901672 0.20709000527858734
          0.753387987613678 -0.3845829963684082 0.5333870053291321 0.41866400837898254 -0.2365349978208542 0.8767960071563721
          -0.6505680084228516 -0.7592939734458923 -0.015325999818742275 -0.8954030275344849 -0.3694060146808624 0.24858300387859344
          -0.15884900093078613 -0.36159801483154297 0.9187020063400269 0.937978982925415 0.23418399691581726 -0.2556450068950653
          0.9838520288467407 0.17898300290107727 0 0.9379780292510986 0.23418700695037842 0.2556439936161041
          0.47621700167655945 0.48049700260162354 -0.7364370226860046 0.09156399965286255 0.37493300437927246 -0.9225190281867981
          -0.9803990125656128 -0.18549099564552307 0.06641200184822083 -0.9296910166740417 -0.36834099888801575 0
          -0.9803990125656128 -0.18549099564552307 -0.06641200184822083 -0.7557349801063538 -0.41278699040412903 -0.5084009766578674
          -0.5065799951553345 0.2088479995727539 -0.8365160226821899 -0.8666089773178101 -0.48745301365852356 0.10666999965906143
          0.4762119948863983 0.48050299286842346 0.7364370226860046 0.09156399965286255 0.37493300437927246 0.9225190281867981
          -0.5065799951553345 0.2088479995727539 0.8365160226821899 -0.7557359933853149 -0.41278499364852905 0.508400022983551
          -0.8666099905967712 -0.4874509871006012 -0.10666699707508087 0.7960860133171082 0.4609439969062805 -0.39214399456977844
          0.872518002986908 0.4885829985141754 0 0.7960860133171082 0.4609439969062805 0.39214399456977844
          0.5158510208129883 0.3333140015602112 -0.7891759872436523 0.1462240070104599 0.18438899517059326 -0.9719150066375732
          -0.7627540230751038 -0.6030219793319702 0.23360300064086914 -0.817126989364624 -0.5764579772949219 0
          -0.7627549767494202 -0.6030240058898926 -0.233597993850708 0.1333010047674179 -0.6434720158576965 -0.7537729740142822
          -0.10289300233125687 -0.10561499744653702 -0.9890699982643127 -0.27899599075317383 -0.8652409911155701 0.4165570139884949
          0.5158510208129883 0.3333140015602112 0.7891759872436523 0.1462240070104599 0.18438899517059326 0.9719150066375732
          -0.10289300233125687 -0.10561499744653702 0.9890699982643127 0.1333010047674179 -0.6434720158576965 0.7537739872932434
          -0.27900299429893494 -0.8652420043945312 -0.4165489971637726 0.9013149738311768 0.20341700315475464 -0.38242998719215393
          0.9538339972496033 0.3003329932689667 0 0.9013149738311768 0.20341700315475464 0.38242998719215393
          0.6100469827651978 -0.012690000236034393 -0.7922639846801758 0.3046500086784363 -0.16736499965190887 -0.9376450181007385
          -0.861545979976654 -0.42903101444244385 0.27142301201820374 -0.3683440089225769 -0.152538001537323 0.9170899987220764
          -0.9095379710197449 -0.4156219959259033 0 -0.861545979976654 -0.42903101444244385 -0.27142301201820374
          -0.36834800243377686 -0.15254199504852295 -0.917087972164154 0.13795199990272522 0.031081000342965126 -0.9899510145187378
          0.11757999658584595 -0.2523370087146759 -0.9604690074920654 0.1676429957151413 -0.746891975402832 -0.6434659957885742
          0.34821900725364685 -0.9007970094680786 -0.25944000482559204 0.6639469861984253 -0.2106509953737259 -0.7174959778785706
          0.5960220098495483 0.4210140109062195 0.6837430000305176 0.6100469827651978 -0.012690000236034393 0.7922639846801758
          0.3046500086784363 -0.16736499965190887 0.9376450181007385 0.11757999658584595 -0.2523370087146759 0.9604690074920654
          0.13795199990272522 0.031081000342965126 0.9899510145187378 0.34821799397468567 -0.9007970094680786 0.25944098830223083
          0.1676429957151413 -0.746891975402832 0.6434659957885742 0.6639469861984253 -0.2106509953737259 0.7174959778785706
          0.5960209965705872 0.4210149943828583 -0.6837430000305176 0.9289640188217163 0.17410799860954285 -0.32666999101638794
          0.9724460244178772 0.23312699794769287 0 0.9289640188217163 0.17410799860954285 0.32666999101638794
          0.6359559893608093 0.004296000115573406 -0.7717139720916748 0.28340399265289307 -0.20902200043201447 -0.9359440207481384
          -0.7075210213661194 0.5882890224456787 0.39157500863075256 -0.18001900613307953 -0.08522000163793564 0.9799649715423584
          -0.9061689972877502 0.4229150116443634 0 -0.7075210213661194 0.5882890224456787 -0.39157500863075256
          -0.18001900613307953 -0.08522000163793564 -0.9799649715423584 -0.25186100602149963 0.13038699328899384 -0.9589390158653259
          -0.0075599998235702515 -0.19418099522590637 -0.9809359908103943 0.14416000247001648 0.7739089727401733 -0.6166710257530212
          -0.219200998544693 -0.7512069940567017 -0.6226069927215576 -0.4987480044364929 -0.5332130193710327 -0.683326005935669
          -0.10668999701738358 -0.8861879706382751 -0.45087501406669617 0.9066900014877319 -0.01020899973809719 -0.4216749966144562
          0.21934400498867035 -0.9702709913253784 -0.10228800028562546 0.7294570207595825 0.30721399188041687 -0.6111559867858887
          0.8999450206756592 0.163223996758461 0.40429699420928955 0.7999539971351624 0.6000609993934631 0
          -0.746740996837616 0.6651149988174438 0.0000019999999949504854 -0.5364919900894165 0.31574198603630066 0.7826129794120789
          0.6359559893608093 0.004296000115573406 0.7717139720916748 0.28340399265289307 -0.20902200043201447 0.9359440207481384
          -0.0075599998235702515 -0.19418099522590637 0.9809359908103943 -0.25186100602149963 0.13038699328899384 0.9589390158653259
          0.14416000247001648 0.7739089727401733 0.6166710257530212 -0.4987500011920929 -0.5332149863243103 0.6833230257034302
          -0.219200998544693 -0.7512069940567017 0.6226069927215576 -0.10668999701738358 -0.8861879706382751 0.45087501406669617
          0.9066900014877319 -0.01020899973809719 0.4216749966144562 0.7294570207595825 0.30721399188041687 0.6111559867858887
          0.21934500336647034 -0.9702699780464172 0.102292999625206 0.8999450206756592 0.163223996758461 -0.40429699420928955
          -0.5364940166473389 0.31574299931526184 -0.7826110124588013 0.4589880108833313 0.8094969987869263 -0.3661220073699951
          0.6424000263214111 0.7663699984550476 0 0.4589880108833313 0.8094969987869263 0.3661220073699951
          0.1438719928264618 0.8201090097427368 -0.5538250207901001 0.019030999392271042 0.545153021812439 -0.8381199836730957
          -0.2992349863052368 0.37761300802230835 -0.8762800097465515 -0.03967899829149246 0.9185550212860107 -0.3932960033416748
          -0.34594500064849854 0.9170830249786377 0.1981939971446991 -0.7387920022010803 0.3538990020751953 0.5735350251197815
          -0.38659799098968506 0.9222490191459656 0 -0.5149480104446411 0.7524809837341309 -0.41061100363731384
          -0.34594300389289856 0.9170830249786377 -0.19819599390029907 -0.03967899829149246 0.9185550212860107 0.3932960033416748
          -0.7387930154800415 0.35389798879623413 -0.5735329985618591 -0.5149480104446411 0.7524809837341309 0.41061100363731384
          -0.4876759946346283 0.6209189891815186 -0.6137030124664307 0.11471699923276901 0.8381819725036621 -0.5331900119781494
          -0.04249599948525429 -0.0006750000175088644 -0.9990959763526917 -0.8562819957733154 -0.07425499707460403 -0.5111420154571533
          -0.205827996134758 -0.679481029510498 -0.7042310237884521 -0.4705590009689331 -0.6366490125656128 0.6109430193901062
          -0.9172589778900146 -0.18519799411296844 0.35261398553848267 -0.2983640134334564 0.5205590128898621 -0.7999979853630066
          -0.4783079922199249 0.47868698835372925 -0.7362610101699829 0.9592909812927246 0.1506579965353012 -0.23887799680233002
          -0.006697000004351139 0.11836399883031845 -0.9929479956626892 -0.5315300226211548 -0.8258180022239685 -0.18841800093650818
          0.3312720060348511 -0.05331199988722801 -0.9420279860496521 -0.9708899855613708 -0.11772400140762329 0.20859700441360474
          0.8877279758453369 -0.04084499925374985 0.4585539996623993 0.9994490146636963 -0.0331990011036396 0
          -0.6817749738693237 0.3797770142555237 -0.6252610087394714 -0.8822649717330933 0.470753014087677 0.0000019999999949504854
          -0.9554340243339539 0.19892099499702454 -0.21811799705028534 -0.9758780002593994 0.044555000960826874 0.21371899545192719
          -0.6817770004272461 0.37977901101112366 0.6252589821815491 -0.9554349780082703 0.19892199337482452 0.21811500191688538
          -0.9758790135383606 0.044557999819517136 -0.2137179970741272 -0.7883949875831604 0.09212800115346909 0.6082320213317871
          0.1438719928264618 0.8201090097427368 0.5538250207901001 0.019030999392271042 0.545153021812439 0.8381199836730957
          -0.2992349863052368 0.37761300802230835 0.8762800097465515 -0.4876739978790283 0.6209189891815186 0.6137040257453918
          0.11471699923276901 0.8381829857826233 0.5331869721412659 -0.29836800694465637 0.5205579996109009 0.7999969720840454
          -0.205827996134758 -0.679481029510498 0.7042310237884521 -0.47831299901008606 0.4786849915981293 0.7362589836120605
          -0.8562819957733154 -0.07425499707460403 0.5111420154571533 -0.04249599948525429 -0.0006750000175088644 0.9990959763526917
          -0.47055599093437195 -0.6366479992866516 -0.6109470129013062 -0.9172599911689758 -0.1851940006017685 -0.35261601209640503
          0.9592909812927246 0.1506579965353012 0.23887799680233002 -0.006697000004351139 0.11836399883031845 0.9929479956626892
          0.331275999546051 -0.0533050000667572 0.9420269727706909 -0.5315260291099548 -0.8258169889450073 0.1884319931268692
          -0.9708930253982544 -0.11772800236940384 -0.2085849940776825 0.8877279758453369 -0.04084499925374985 -0.4585539996623993
          -0.7883930206298828 0.09213099628686905 -0.6082339882850647 -0.8130480051040649 0.21557499468326569 0.5408139824867249
          -0.40594300627708435 0.15677599608898163 0.9003509879112244 -0.8130480051040649 0.21557499468326569 -0.5408139824867249
          -0.40593600273132324 0.15677499771118164 -0.9003540277481079 -0.5586119890213013 -0.657380998134613 -0.5057700276374817
          -0.764693021774292 -0.04542199894785881 -0.6427919864654541 -0.6418110132217407 -0.6845560073852539 -0.34563198685646057
          -0.9338210225105286 0.19807399809360504 -0.2979010045528412 -0.6329309940338135 -0.11625800281763077 -0.7654299736022949
          -0.6349350214004517 -0.7679929733276367 -0.08393300324678421 0.7723990082740784 -0.6169739961624146 -0.15080800652503967
          0.6491720080375671 -0.6065400242805481 0.4590049982070923 0.9592409729957581 -0.2825869917869568 0
          0.6491720080375671 -0.6065400242805481 -0.4590049982070923 -0.6948800086975098 0.2262060046195984 -0.6826220154762268
          -0.6273469924926758 0.1723089963197708 -0.7594379782676697 -0.921180009841919 0.38913801312446594 0
          -0.694881021976471 0.22621099650859833 0.6826189756393433 -0.6273469924926758 0.1723089963197708 0.7594379782676697
          -0.9338210225105286 0.19807399809360504 0.2979010045528412 -0.6329309940338135 -0.11625800281763077 0.7654299736022949
          -0.6349350214004517 -0.7679929733276367 0.08393300324678421 -0.764693021774292 -0.04542199894785881 0.6427919864654541
          -0.5586119890213013 -0.657380998134613 0.5057700276374817 -0.6418110132217407 -0.6845560073852539 0.34563198685646057
          0.7723990082740784 -0.6169739961624146 0.15080800652503967 -0.3917750120162964 -0.127919003367424 -0.9111250042915344
          -0.09460700303316116 -0.9846240282058716 0.14685200154781342 0.12905199825763702 -0.7136020064353943 -0.6885619759559631
          0.6865370273590088 -0.7270950078964233 0 -0.09460700303316116 -0.9846240282058716 -0.14685200154781342
          0.12905199825763702 -0.7136020064353943 0.6885619759559631 -0.9680780172348022 0.25064900517463684 0
          -0.3917750120162964 -0.127919003367424 0.9111250042915344 -0.09794099628925323 0.16152900457382202 -0.9819959998130798
          -0.002171000000089407 -0.08787699788808823 -0.9961289763450623 0.34963399171829224 -0.5239610075950623 -0.7766730189323425
          0.30418598651885986 -0.9526129961013794 0 0.34963399171829224 -0.5239610075950623 0.7766730189323425
          -0.002171000000089407 -0.08787699788808823 0.9961289763450623 -0.6846070289611816 -0.3259980082511902 -0.6519500017166138
          -0.7303770184516907 -0.6830450296401978 0 -0.6846070289611816 -0.3259980082511902 0.6519500017166138
          -0.09794099628925323 0.16152900457382202 0.9819959998130798 -0.07714000344276428 -0.6852650046348572 -0.7241969704627991
          -0.3918150067329407 -0.9200440049171448 0 -0.07714000344276428 -0.6852650046348572 0.7241969704627991
          <InformationKey name="L2_NORM_RANGE" location="vtkDataArray" length="2">
            <Value index="0">
              0.9999993261
            </Value>
            <Value index="1">
              1.00000063
            </Value>
          </InformationKey>
        </DataArray>
      </PointData>
      <CellData>
      </CellData>
      <Points>
        <DataArray type="Float32" Name="Points" NumberOfComponents="3" format="ascii" RangeMin="0.006583182695784785" RangeMax="0.05559277489788623">
          0.001762000028975308 0.00634300010278821 0 0.014785000123083591 0.013410000130534172 -0.008983000181615353
          0.013829999603331089 0.009015999734401703 0 0.01015899982303381 0.01178400032222271 -0.018384000286459923
          0.0030320000369101763 0.008365999907255173 -0.022960999980568886 -0.015066999942064285 0.0016240000259131193 0
          -0.014845999889075756 0.0013119999784976244 -0.005394999869167805 -0.015316000208258629 0.0015119999879971147 -0.015980999916791916
          -0.010711999610066414 0.004745999816805124 -0.02309500053524971 0.014785000123083591 0.013410000130534172 0.008983000181615353
          0.01015899982303381 0.01178400032222271 0.018384000286459923 0.0030320000369101763 0.008365999907255173 0.022960999980568886
          -0.014845999889075756 0.0013119999784976244 0.005394999869167805 -0.015316000208258629 0.0015119999879971147 0.015980999916791916
          -0.010711999610066414 0.004745999816805124 0.02309500053524971 0.015038999728858471 0.014755000360310078 -0.010789000429213047
          0.014692000113427639 0.015381000004708767 0 0.015038999728858471 0.014755000360310078 0.010789000429213047
          0.008364000357687473 0.01431300025433302 -0.017754999920725822 -0.00014899999951012433 0.013461999595165253 -0.02158600091934204
          -0.01400499977171421 0.007540999911725521 -0.005045999772846699 -0.013921000063419342 0.007414999883621931 0
          -0.01400499977171421 0.007540999911725521 0.005045999772846699 -0.01465499959886074 0.00929300021380186 -0.016318000853061676
          -0.010366999544203281 0.008154000155627728 -0.021747000515460968 -0.015503999777138233 0.008654000237584114 -0.009634999558329582
          0.008364000357687473 0.01431300025433302 0.017754999920725822 -0.00014899999951012433 0.013461999595165253 0.02158600091934204
          -0.010366999544203281 0.008154000155627728 0.021747000515460968 -0.01465499959886074 0.00929300021380186 0.016318000853061676
          -0.015503999777138233 0.008654000237584114 0.009634999558329582 0.010695000179111958 0.01996299996972084 -0.010502000339329243
          0.012155000120401382 0.020090000703930855 0 0.010695000179111958 0.01996299996972084 0.010502000339329243
          0.004980999976396561 0.018849000334739685 -0.017309000715613365 -0.0018759999657049775 0.018050000071525574 -0.01962899975478649
          -0.018904000520706177 0.013520999811589718 -0.00648100022226572 -0.01843699999153614 0.013776999898254871 0
          -0.018904000520706177 0.013520999811589718 0.00648100022226572 -0.017212999984622 0.012613000348210335 -0.01945899985730648
          -0.011815999634563923 0.015407999977469444 -0.020577000454068184 -0.020937999710440636 0.013278000056743622 -0.009941999800503254
          0.004980999976396561 0.018849000334739685 0.017309000715613365 -0.0018759999657049775 0.018050000071525574 0.01962899975478649
          -0.011815999634563923 0.015407999977469444 0.020577000454068184 -0.017212999984622 0.012613000348210335 0.01945899985730648
          -0.020937999710440636 0.013278000056743622 0.009941999800503254 0.007493000011891127 0.028939999639987946 -0.010130000300705433
          0.00841199979186058 0.030762000009417534 0 0.007493000011891127 0.028939999639987946 0.010130000300705433
          0.0015810000477358699 0.026847999542951584 -0.017974000424146652 -0.003260999917984009 0.024755999445915222 -0.01971600018441677
          -0.02312600053846836 0.01927899941802025 -0.006696000229567289 -0.025225000455975533 0.018845999613404274 -0.010394999757409096
          -0.022461000829935074 0.01971600018441677 0 -0.02312600053846836 0.01927899941802025 0.006696000229567289
          -0.025225000455975533 0.018845999613404274 0.010394999757409096 -0.01831899955868721 0.0194690003991127 -0.021129999309778214
          -0.013283000327646732 0.02057499997317791 -0.020721999928355217 -0.021338000893592834 0.013678000308573246 -0.02149900048971176
          -0.022989999502897263 0.009386000223457813 -0.01752999983727932 -0.024612000212073326 0.016341999173164368 -0.02571599930524826
          -0.029872000217437744 0.012040000408887863 -0.003788999980315566 0.0015810000477358699 0.026847999542951584 0.017974000424146652
          -0.003260999917984009 0.024755999445915222 0.01971600018441677 -0.013283000327646732 0.02057499997317791 0.020721999928355217
          -0.01831899955868721 0.0194690003991127 0.021129999309778214 -0.022989999502897263 0.009386000223457813 0.01752999983727932
          -0.021338000893592834 0.013678000308573246 0.02149900048971176 -0.024612000212073326 0.016341999173164368 0.02571599930524826
          -0.029872000217437744 0.012040000408887863 0.003788999980315566 0.006938000209629536 0.03449900075793266 -0.011210000142455101
          0.007375999819487333 0.035197000950574875 0 0.006938000209629536 0.03449900075793266 0.011210000142455101
          0.002007999923080206 0.03172500059008598 -0.019027000293135643 -0.0037769998889416456 0.028392000123858452 -0.02180499956011772
          -0.026468999683856964 0.026705000549554825 -0.008549000136554241 -0.02653600089251995 0.024542000144720078 -0.01116199977695942
          -0.024493999779224396 0.02647400088608265 0 -0.026468999683856964 0.026705000549554825 0.008549000136554241
          -0.02653600089251995 0.024542000144720078 0.01116199977695942 -0.021004000678658485 0.02364099957048893 -0.020416000857949257
          -0.012800999917089939 0.02611199952661991 -0.02286599949002266 -0.027638999745249748 0.022110000252723694 -0.020468000322580338
          -0.031072000041604042 0.01094099972397089 -0.017633000388741493 -0.03426999971270561 0.014809999614953995 -0.023740999400615692
          -0.027132000774145126 0.009978000074625015 -0.025398999452590942 -0.023876000195741653 0.0056420001201331615 -0.010789000429213047
          -0.02889700047671795 0.011919000186026096 -0.0297200009226799 -0.02860100008547306 0.015641000121831894 -0.03269200026988983
          -0.02556700073182583 0.0002519999979995191 -0.00522099994122982 -0.02961999922990799 0.010412000119686127 0
          -0.038795001804828644 0.010041000321507454 0 -0.03409599885344505 0.017652999609708786 -0.007891999557614326
          0.002007999923080206 0.03172500059008598 0.019027000293135643 -0.0037769998889416456 0.028392000123858452 0.02180499956011772
          -0.012800999917089939 0.02611199952661991 0.02286599949002266 -0.021004000678658485 0.02364099957048893 0.020416000857949257
          -0.027638999745249748 0.022110000252723694 0.020468000322580338 -0.03426999971270561 0.014809999614953995 0.023740999400615692
          -0.031072000041604042 0.01094099972397089 0.017633000388741493 -0.027132000774145126 0.009978000074625015 0.025398999452590942
          -0.023876000195741653 0.0056420001201331615 0.010789000429213047 -0.02860100008547306 0.015641000121831894 0.03269200026988983
          -0.02889700047671795 0.011919000186026096 0.0297200009226799 -0.02556700073182583 0.0002519999979995191 0.00522099994122982
          -0.03409599885344505 0.017652999609708786 0.007891999557614326 0.004784000106155872 0.03919599950313568 -0.011416000314056873
          0.005499999970197678 0.039820000529289246 0 0.004784000106155872 0.03919599950313568 0.011416000314056873
          -0.00003899999865097925 0.036729998886585236 -0.01928899995982647 -0.0069160000421106815 0.03380199894309044 -0.022859999909996986
          -0.015550999902188778 0.029296999797225 -0.02300800010561943 -0.02806299924850464 0.024153999984264374 -0.01445200014859438
          -0.03601599857211113 0.02795499935746193 -0.016405999660491943 -0.03488200157880783 0.0251460000872612 -0.010300000198185444
          -0.009496999904513359 0.03314699977636337 0 -0.024421999230980873 0.027048999443650246 -0.017549000680446625
          -0.03601599857211113 0.02795499935746193 0.016405999660491943 -0.02806299924850464 0.024153999984264374 0.01445200014859438
          -0.03488200157880783 0.0251460000872612 0.010300000198185444 -0.024421999230980873 0.027048999443650246 0.017549000680446625
          -0.03271400183439255 0.020617999136447906 -0.029174000024795532 -0.032791998237371445 0.024335000663995743 -0.018868999555706978
          -0.0316540002822876 0.002940000034868717 -0.01587899960577488 -0.0354590006172657 -0.00044999999227002263 -0.012968000024557114
          -0.03998300060629845 0.014368999749422073 -0.02165300026535988 -0.040029000490903854 0.012830999679863453 -0.014539999887347221
          -0.03739500045776367 0.01218700036406517 -0.013000000268220901 -0.04268300160765648 0.02356100082397461 -0.019979000091552734
          -0.03612300008535385 0.02115499973297119 -0.021834999322891235 -0.022606000304222107 -0.0013000000035390258 -0.012299000285565853
          -0.03394699841737747 -0.00469700014218688 -0.017501000314950943 -0.033371999859809875 0.011513999663293362 -0.03298100084066391
          -0.03251300007104874 0.014494000002741814 -0.036166999489068985 -0.036765001714229584 0.018678000196814537 -0.03344399854540825
          -0.023987000808119774 -0.005268000066280365 -0.00685499981045723 -0.028957000002264977 0.0001340000017080456 0
          -0.038662999868392944 0.005836999975144863 -0.005061999894678593 -0.04549200087785721 -0.0010300000431016088 0
          -0.03447699919342995 0.006225000135600567 -0.008497999981045723 -0.03588499873876572 0.010854000225663185 -0.010658999904990196
          -0.038662999868392944 0.005836999975144863 0.005061999894678593 -0.03447699919342995 0.006225000135600567 0.008497999981045723
          -0.03588499873876572 0.010854000225663185 0.010658999904990196 -0.035339001566171646 0.01778700016438961 -0.011629999615252018
          -0.00003899999865097925 0.036729998886585236 0.01928899995982647 -0.0069160000421106815 0.03380199894309044 0.022859999909996986
          -0.015550999902188778 0.029296999797225 0.02300800010561943 -0.03271400183439255 0.020617999136447906 0.029174000024795532
          -0.032791998237371445 0.024335000663995743 0.018868999555706978 -0.04268300160765648 0.02356100082397461 0.019979000091552734
          -0.03998300060629845 0.014368999749422073 0.02165300026535988 -0.03612300008535385 0.02115499973297119 0.021834999322891235
          -0.0354590006172657 -0.00044999999227002263 0.012968000024557114 -0.0316540002822876 0.002940000034868717 0.01587899960577488
          -0.040029000490903854 0.012830999679863453 0.014539999887347221 -0.03739500045776367 0.01218700036406517 0.013000000268220901
          -0.022606000304222107 -0.0013000000035390258 0.012299000285565853 -0.03394699841737747 -0.00469700014218688 0.017501000314950943
          -0.03251300007104874 0.014494000002741814 0.036166999489068985 -0.033371999859809875 0.011513999663293362 0.03298100084066391
          -0.036765001714229584 0.018678000196814537 0.03344399854540825 -0.023987000808119774 -0.005268000066280365 0.00685499981045723
          -0.035339001566171646 0.01778700016438961 0.011629999615252018 -0.04715000092983246 0.01803000085055828 -0.01674400083720684
          -0.03982200101017952 0.01818699948489666 -0.014276999980211258 -0.04715000092983246 0.01803000085055828 0.01674400083720684
          -0.03982200101017952 0.01818699948489666 0.014276999980211258 -0.0355990007519722 -0.009247999638319016 -0.009957999922335148
          -0.03690300136804581 -0.004387000110000372 -0.01052400004118681 -0.03171199932694435 -0.01167600043118 -0.017254000529646873
          -0.036003999412059784 0.001803999999538064 -0.009066999889910221 -0.044860001653432846 0.017176000401377678 -0.02214599959552288
          -0.04587100073695183 0.014039999805390835 -0.017201999202370644 -0.022842999547719955 -0.01394800003618002 -0.013666000217199326
          -0.025838999077677727 -0.008716999553143978 -0.005444999784231186 -0.029812999069690704 -0.0064119999296963215 0
          -0.025838999077677727 -0.008716999553143978 0.005444999784231186 -0.041046999394893646 -0.00014400000509340316 -0.004273999948054552
          -0.042844999581575394 -0.005342999938875437 -0.0041600000113248825 -0.05351699888706207 -0.007652000058442354 0
          -0.041046999394893646 -0.00014400000509340316 0.004273999948054552 -0.042844999581575394 -0.005342999938875437 0.0041600000113248825
          -0.036003999412059784 0.001803999999538064 0.009066999889910221 -0.044860001653432846 0.017176000401377678 0.02214599959552288
          -0.04587100073695183 0.014039999805390835 0.017201999202370644 -0.03690300136804581 -0.004387000110000372 0.01052400004118681
          -0.0355990007519722 -0.009247999638319016 0.009957999922335148 -0.03171199932694435 -0.01167600043118 0.017254000529646873
          -0.022842999547719955 -0.01394800003618002 0.013666000217199326 -0.04161899909377098 -0.009964000433683395 -0.004342999774962664
          -0.03091599978506565 -0.010673999786376953 -0.007826000452041626 -0.03638700023293495 -0.011260000057518482 -0.00509499991312623
          -0.03461899980902672 -0.016416000202298164 0 -0.03091599978506565 -0.010673999786376953 0.007826000452041626
          -0.03638700023293495 -0.011260000057518482 0.00509499991312623 -0.05397000163793564 -0.013333999551832676 0
          -0.04161899909377098 -0.009964000433683395 0.004342999774962664 -0.04412800073623657 -0.014541000127792358 -0.004732999950647354
          -0.04021799936890602 -0.01572299934923649 -0.004749000072479248 -0.040258001536130905 -0.020205000415444374 -0.0036869999021291733
          -0.04182400181889534 -0.021577000617980957 0 -0.040258001536130905 -0.020205000415444374 0.0036869999021291733
          -0.04021799936890602 -0.01572299934923649 0.004749000072479248 -0.050530001521110535 -0.017604000866413116 -0.004792000167071819
          -0.050919998437166214 -0.019447000697255135 0 -0.050530001521110535 -0.017604000866413116 0.004792000167071819
          -0.04412800073623657 -0.014541000127792358 0.004732999950647354 -0.04762699827551842 -0.02065500058233738 -0.005584000144153833
          -0.046039000153541565 -0.02223300002515316 0 -0.04762699827551842 -0.02065500058233738 0.005584000144153833
          <InformationKey name="L2_NORM_RANGE" location="vtkDataArray" length="2">
            <Value index="0">
              0.0065831826958
            </Value>
            <Value index="1">
              0.055592774898
            </Value>
          </InformationKey>
        </DataArray>
      </Points>
      <Verts>
        <DataArray type="Int64" Name="connectivity" format="ascii" RangeMin="1e+299" RangeMax="-1e+299">
        </DataArray>
        <DataArray type="Int64" Name="offsets" format="ascii" RangeMin="1e+299" RangeMax="-1e+299">
        </DataArray>
      </Verts>
      <Lines>
        <DataArray type="Int64" Name="connectivity" format="ascii" RangeMin="1e+299" RangeMax="-1e+299">
        </DataArray>
        <DataArray type="Int64" Name="offsets" format="ascii" RangeMin="1e+299" RangeMax="-1e+299">
        </DataArray>
      </Lines>
      <Strips>
        <DataArray type="Int64" Name="connectivity" format="ascii" RangeMin="1e+299" RangeMax="-1e+299">
        </DataArray>
        <DataArray type="Int64" Name="offsets" format="ascii" RangeMin="1e+299" RangeMax="-1e+299">
        </DataArray>
      </Strips>
      <Polys>
        <DataArray type="Int32" Name="connectivity" format="ascii" RangeMin="0" RangeMax="211">
          0 1 2 0 3 1
          0 4 3 0 5 6
          6 7 0 0 7 8
          8 4 0 2 9 0
          9 10 0 10 11 0
          12 5 0 0 13 12
          14 13 0 0 11 14
          2 1 15 15 1 3
          16 2 15 17 9 2
          17 2 16 18 15 3
          18 3 4 19 18 4
          19 4 8 20 6 5
          21 20 5 5 12 22
          5 22 21 6 20 7
          7 23 24 8 7 24
          25 23 7 20 25 7