<?xml version="1.0"?>
<VTKFile type="PolyData" version="0.1" byte_order="LittleEndian" header_type="UInt32" compressor="vtkZLibDataCompressor">
  <PolyData>
    <Piece NumberOfPoints="227" NumberOfVerts="0" NumberOfLines="0" NumberOfStrips="0" NumberOfPolys="448">
      <PointData Normals="Normals">
        <DataArray type="Float32" Name="Normals" NumberOfComponents="3" format="ascii" RangeMin="0.9999992652938451" RangeMax="1.000000675384537">
          0.42122501134872437 -0.056067001074552536 -0.9052209854125977 0.5985720157623291 0.308555006980896 -0.7392600178718567
          0.1902579963207245 -0.005853999871760607 -0.9817169904708862 0.24501200020313263 -0.2121880054473877 -0.9460160136222839
          0.1451600044965744 -0.28026100993156433 -0.9488850235939026 0.7480170130729675 -0.18800300359725952 -0.636493980884552
          0.630856990814209 0.13588300347328186 -0.7639080286026001 0.42892301082611084 -0.05720699951052666 -0.901528000831604
          0.2892509996891022 0.03147200122475624 -0.9567360281944275 0.4178990125656128 0.6045889854431152 -0.6781089901924133
          0.3559350073337555 0.1548209935426712 -0.9215970039367676 0.854170024394989 0.2640779912471771 -0.4479469954967499
          0.8080899715423584 0.511605978012085 -0.2919769883155823 0.6132529973983765 0.31874099373817444 -0.7227200269699097
          0.8092589974403381 -0.0011259999591857195 -0.5874519944190979 0.09748800098896027 -0.455363005399704 -0.8849520087242126
          0.807328999042511 -0.38240399956703186 -0.4494290053844452 0.5459579825401306 -0.29523900151252747 -0.7840690016746521
          0.7900090217590332 -0.10495799779891968 -0.6040440201759338 -0.6072549819946289 -0.15836000442504883 -0.778564989566803
          -0.22130100429058075 -0.23836399614810944 -0.9456260204315186 0.06529100239276886 -0.3887310028076172 -0.919035017490387
          0.6032649874687195 0.7470170259475708 -0.2793489992618561 0.749904990196228 0.6613579988479614 0.015755999833345413
          0.6841620206832886 0.06318899989128113 -0.7265869975090027 0.1008870005607605 0.011123999953269958 -0.9948359727859497
          -0.845848023891449 -0.11717899888753891 -0.5203949809074402 0.9088590145111084 0.4169749915599823 0.01033599954098463
          0.9680200219154358 0.23420600593090057 0.08991699665784836 0.9127699732780457 0.40797099471092224 -0.02027600072324276
          0.986965000629425 -0.10795000195503235 -0.11935999989509583 0.4889410138130188 -0.7397500276565552 -0.46228399872779846
          0.16508500277996063 -0.5617899894714355 -0.8106409907341003 0.7286840081214905 -0.6847699880599976 -0.010483000427484512
          0.30724799633026123 -0.6970450282096863 -0.64786297082901 0.20590999722480774 -0.7089970111846924 -0.6744809746742249
          -0.9747949838638306 -0.16455300152301788 -0.15065500140190125 -0.8160290122032166 -0.21015800535678864 -0.5384529829025269
          -0.961555004119873 -0.2658950090408325 -0.06863900274038315 -0.8580650091171265 -0.45824599266052246 -0.23180699348449707
          -0.6089619994163513 -0.47090598940849304 -0.6382889747619629 -0.5374330282211304 -0.7528250217437744 -0.38002699613571167
          0.9042379856109619 0.4260289967060089 -0.029222000390291214 0.9222350120544434 0.3385480046272278 0.18672700226306915
          0.8202909827232361 -0.012721000239253044 -0.5718050003051758 0.24896200001239777 -0.09638900309801102 -0.9637050032615662
          -0.48927798867225647 -0.12018100172281265 -0.8638079762458801 -0.8901749849319458 -0.04309999942779541 0.453575998544693
          -0.9791179895401001 -0.18478700518608093 -0.08474799990653992 -0.7478389739990234 -0.08300500363111496 0.6586700081825256
          0.7789009809494019 0.6271309852600098 0.00443200021982193 0.7647320032119751 0.39446398615837097 0.5094929933547974
          0.6094210147857666 0.5671319961547852 0.5540469884872437 0.3728100061416626 0.24975399672985077 0.8936640024185181
          0.9780269861221313 0.06921800225973129 0.19665099680423737 0.5935199856758118 0.13341699540615082 0.7936840057373047
          0.9161760210990906 -0.37177199125289917 0.14969100058078766 0.2591949999332428 -0.9442809820175171 -0.20285899937152863
          0.4157080054283142 -0.8440539836883545 0.3387629985809326 -0.5447440147399902 -0.8362740278244019 -0.06244700029492378
          -0.24921900033950806 -0.9586809873580933 -0.13718600571155548 -0.8842679858207703 0.2084909975528717 0.4178529977798462
          -0.7957829833030701 -0.6032959818840027 0.052570000290870667 -0.9828569889068604 -0.18436299264431 0.0015940000303089619
          -0.9135040044784546 -0.3355729877948761 -0.23000399768352509 -0.8530870079994202 -0.5164399743080139 0.0743739977478981
          -0.8565570116043091 -0.4062440097332001 0.3182390034198761 -0.8554850220680237 -0.5148800015449524 0.05517299845814705
          -0.67146897315979 -0.7287110090255737 -0.13457399606704712 0.9746310114860535 0.2237199991941452 -0.006632000207901001
          0.7601519823074341 0.6304969787597656 0.15697699785232544 0.950859010219574 0.3082300126552582 0.02934500016272068
          0.9084870219230652 -0.11100699752569199 0.4029009938240051 0.6832849979400635 -0.23413799703121185 -0.6915929913520813
          0.1291079968214035 -0.39737001061439514 -0.9085310101509094 -0.6296129822731018 -0.29546499252319336 -0.7185310125350952
          -0.3554820120334625 0.24225200712680817 0.9027439951896667 -0.35246899724006653 0.08538500219583511 0.9319199919700623
          -0.7150470018386841 -0.304654985666275 0.6292009949684143 -0.9082559943199158 -0.32007598876953125 0.2694869935512543
          -0.9329460263252258 -0.3419319987297058 -0.1126680001616478 -0.7536680102348328 -0.3996419906616211 -0.5217959880828857
          0.035130999982357025 0.08815199881792068 0.9954869747161865 0.0006549999816343188 -0.016023999080061913 0.999871015548706
          -0.13000600039958954 -0.160971000790596 0.9783589839935303 0.06433799862861633 0.7883939743041992 0.6117969751358032
          0.33499300479888916 0.8968300223350525 0.2889220118522644 0.222338005900383 0.34592700004577637 0.9115369915962219
          -0.15133799612522125 0.2322770059108734 0.9608039855957031 0.9931510090827942 -0.10255499929189682 0.055984001606702805
          0.8070819973945618 -0.015607000328600407 0.5902330279350281 0.7343289852142334 0.06492599844932556 0.6756809949874878
          0.4565330147743225 0.031902000308036804 0.8891350030899048 0.6622120141983032 -0.5382220149040222 0.521336019039154
          -0.1657319962978363 -0.9172019958496094 0.3623180091381073 0.05375099927186966 -0.7120450139045715 0.7000740170478821
          -0.5577340126037598 -0.8010129928588867 0.21750999987125397 -0.7907599806785583 -0.4651640057563782 0.3978939950466156
          -0.8105790019035339 -0.17118600010871887 0.5600510239601135 -0.4519230127334595 0.18646100163459778 0.8723520040512085
          -0.7334259748458862 -0.45643800497055054 0.5037369728088379 -0.3614639937877655 -0.55765700340271 0.7472360134124756
          -0.5906540155410767 -0.7083200216293335 0.38653600215911865 -0.66075599193573 -0.2113569974899292 0.7202290296554565
          0.9364420175552368 0.14636699855327606 0.3188309967517853 0.5918989777565002 0.28171199560165405 0.7551779747009277
          0.4124389886856079 0.730567991733551 0.5442100167274475 0.2651660144329071 -0.2929239869117737 0.9186310172080994
          0.17507900297641754 -0.539717972278595 0.8234390020370483 0.7379230260848999 -0.015923000872135162 0.6746969819068909
          0.9405400156974792 -0.32284998893737793 -0.10560999810695648 -0.3663620054721832 -0.5529170036315918 -0.7483729720115662
          0.4518190026283264 -0.47205600142478943 -0.7569829821586609 -0.7688030004501343 -0.2805669903755188 0.5746520161628723
          -0.3035939931869507 -0.3981960117816925 0.8656039834022522 -0.9402400255203247 0.006690999958664179 0.3404479920864105
          -0.9705870151519775 -0.23695899546146393 0.04257199913263321 -0.9823459982872009 -0.1453859955072403 -0.11772800236940384
          -0.7782700061798096 -0.46977901458740234 -0.4166570007801056 -0.5286200046539307 -0.6521040201187134 -0.5434349775314331
          0.4203200042247772 -0.05725599825382233 0.90556800365448 0.33154699206352234 -0.21460199356079102 0.918707013130188
          -0.6024720072746277 0.27223899960517883 0.7502750158309937 -0.1424649953842163 0.6073179841041565 0.7815809845924377
          -0.19053499400615692 -0.39572298526763916 0.8983880281448364 -0.6406999826431274 0.03283900022506714 0.7670890092849731
          -0.24566900730133057 -0.18713299930095673 0.9511190056800842 0.7926210165023804 -0.13704800605773926 0.5941129922866821
          -0.5241929888725281 -0.5361829996109009 0.661611020565033 -0.38492000102996826 -0.31232500076293945 0.8684980273246765
          -0.6638429760932922 -0.13921500742435455 0.7348009943962097 -0.5594660043716431 -0.20948000252246857 0.8019449710845947
          -0.5082780122756958 0.14894999563694 0.8482139706611633 0.16475500166416168 0.00686000008136034 0.9863110184669495
          -0.5399460196495056 -0.06768599897623062 0.8389739990234375 0.9407050013542175 -0.052597999572753906 0.3351219892501831
          0.9507179856300354 -0.23076599836349487 -0.2070789933204651 0.9981819987297058 -0.03052300028502941 -0.0519770011305809
          -0.03250600025057793 -0.38169801235198975 -0.9237149953842163 -0.46510499715805054 -0.556473970413208 -0.6884869933128357
          0.7112550139427185 -0.35372498631477356 -0.607450008392334 -0.4187059998512268 -0.0405069999396801 0.9072179794311523
          -0.6619240045547485 0.33612799644470215 0.6699810028076172 -0.894711971282959 0.3032679855823517 0.3278999924659729
          -0.971759021282196 0.20426300168037415 0.11815600097179413 -0.9924910068511963 0.12078399956226349 -0.019307000562548637
          -0.8395450115203857 -0.18789100646972656 -0.5097650289535522 -0.9113569855690002 0.38944199681282043 -0.1332789957523346
          -0.8379120230674744 0.5448139905929565 -0.0328730009496212 0.5441330075263977 -0.04503599926829338 0.837788999080658
          0.7158970236778259 0.014283999800682068 0.6980599761009216 0.7469559907913208 -0.037838999181985855 0.6637960076332092
          0.5804200172424316 0.07509099692106247 0.8108479976654053 0.789775013923645 0.24104300141334534 0.5640509724617004
          0.6881020069122314 0.6139940023422241 0.3866870105266571 0.8826019763946533 0.27020201086997986 0.38471299409866333
          0.9548379778862 -0.2867009937763214 -0.07801499962806702 0.926181972026825 -0.35991498827934265 0.11246299743652344
          0.9958570003509521 -0.08989399671554565 0.013736000284552574 0.9582350254058838 0.2325890064239502 0.16639600694179535
          -0.0013889999827370048 0.25017601251602173 -0.9681990146636963 0.6930930018424988 -0.25609299540519714 -0.6738240122795105
          -0.402646005153656 -0.06587599962949753 -0.9129819869995117 -0.3391430079936981 0.42428600788116455 0.8396210074424744
          0.04755600169301033 0.25926798582077026 0.9646340012550354 -0.36682599782943726 0.6256440281867981 0.6884829998016357
          -0.3132399916648865 0.6241880059242249 0.7157310247421265 -0.6395509839057922 0.6056749820709229 0.4734250009059906
          -0.7757030129432678 0.6143029928207397 -0.1446249932050705 -0.3343859910964966 0.9195070266723633 0.20662200450897217
          -0.8093879818916321 0.5824580192565918 -0.07505399733781815 -0.637474000453949 0.35488399863243103 -0.6838750243186951
          -0.5124340057373047 0.8453620076179504 -0.1509139984846115 -0.271806001663208 0.943244993686676 -0.1908169984817505
          -0.34158599376678467 0.9374889731407166 -0.06658600270748138 0.37080299854278564 0.31072700023651123 0.8751879930496216
          0.6632949709892273 -0.14760899543762207 0.7336570024490356 0.5652170181274414 -0.01958799920976162 0.8247100114822388
          0.5737940073013306 0.10442300140857697 0.8123149871826172 0.7530980110168457 0.04991700127720833 0.6560119986534119
          0.3794099986553192 0.4455159902572632 0.810903012752533 0.743071973323822 0.557790994644165 0.36974799633026123
          0.9154009819030762 0.3935509920120239 0.08460299670696259 0.6133890151977539 0.4036180078983307 0.6788570284843445
          0.866129994392395 -0.4779509902000427 -0.14622899889945984 0.9092659950256348 -0.11193999648094177 0.40088000893592834
          0.9294099807739258 -0.30667799711227417 -0.20529399812221527 0.9596869945526123 -0.15320099890232086 0.2356480062007904
          0.6079760193824768 0.17974799871444702 0.7733410000801086 0.25491800904273987 0.8104060292243958 -0.5275020003318787
          -0.21878300607204437 0.38968798518180847 -0.8945819735527039 -0.11927200108766556 0.7413240075111389 -0.6604650020599365
          0.7200890183448792 0.07063999772071838 -0.690276026725769 0.1665409952402115 0.554839015007019 0.8151180148124695
          -0.2949090003967285 0.8664489984512329 -0.4028570055961609 -0.26927199959754944 0.897849977016449 -0.34836500883102417
          0.14698399603366852 0.9618510007858276 0.23073400557041168 0.30884799361228943 0.8155279755592346 0.4894149899482727
          -0.29443100094795227 0.7575929760932922 -0.582548975944519 -0.03935699909925461 0.9989950060844421 -0.021455999463796616
          -0.1330540031194687 0.7402979731559753 -0.6589800119400024 0.05011599883437157 0.9863250255584717 -0.15700800716876984
          0.04376700147986412 0.9942740201950073 0.09748400002717972 0.5642399787902832 0.26762500405311584 0.7810320258140564
          0.7363119721412659 0.11065799742937088 0.6675329804420471 0.9499480128288269 0.2527430057525635 0.18362699449062347
          0.5993229746818542 0.22923600673675537 0.7669829726219177 0.9209349751472473 0.02418999932706356 0.38896599411964417
          0.6847659945487976 0.7247740030288696 0.07614199817180634 0.6635429859161377 0.7309330105781555 0.15952399373054504
          0.9300069808959961 0.12208099663257599 -0.34667500853538513 0.9968379735946655 0.0753450021147728 0.02524399943649769
          0.7698090076446533 0.6371579766273499 -0.037728000432252884 0.779653012752533 0.3617660105228424 0.5111420154571533
          0.6497250199317932 0.643867015838623 0.40409401059150696 -0.08075600117444992 0.9619110226631165 -0.26116400957107544
          0.6658830046653748 0.6959019899368286 -0.2689250111579895 -0.03438999876379967 0.8767189979553223 -0.47977200150489807
          0.5621910095214844 0.6627280116081238 0.4947049915790558 0.024233000352978706 0.8840339779853821 -0.4667930006980896
          0.09984000027179718 0.9448519945144653 -0.3119089901447296 -0.16041199862957 0.7375739812850952 -0.6559370160102844
          0.027011999860405922 0.9570149779319763 -0.28877800703048706 0.4727199971675873 0.781777024269104 0.4066449999809265
          0.7645620107650757 0.6439380049705505 -0.028077999129891396 0.05726800113916397 0.8423259854316711 -0.5359169840812683
          0.3179570138454437 0.9444810152053833 0.0828159973025322
          <InformationKey name="L2_NORM_RANGE" location="vtkDataArray" length="2">
            <Value index="0">
              0.99999926529
            </Value>
            <Value index="1">
              1.0000006754
            </Value>
          </InformationKey>
        </DataArray>
      </PointData>
      <CellData>
      </CellData>
      <Points>
        <DataArray type="Float32" Name="Points" NumberOfComponents="3" format="ascii" RangeMin="0.03231723921866926" RangeMax="0.10392180575647235">
          0.006417999975383282 -0.09149699658155441 0.014090999960899353 0.005762999877333641 -0.0878399983048439 0.014010000042617321
          0.008875000290572643 -0.09248699992895126 0.014031000435352325 0.008727000094950199 -0.0978040024638176 0.014682999812066555
          0.006357000209391117 -0.09525399655103683 0.014542999677360058 0.005324000027030706 -0.09544000029563904 0.013732999563217163
          0.004292000085115433 -0.08803299814462662 0.012202000245451927 0.0029100000392645597 -0.09452199935913086 0.011014999821782112
          0.002248999895527959 -0.08939599990844727 0.010993000119924545 0.00804699957370758 -0.08944500237703323 0.014305000193417072
          -0.0006220000213943422 -0.07894100248813629 0.011610000394284725 0.0036959999706596136 -0.0806720033288002 0.015604999847710133
          0.006506999954581261 -0.08632300049066544 0.01707400009036064 0.009353999979794025 -0.09016700088977814 0.014271000400185585
          0.010657000355422497 -0.09310699999332428 0.015050999820232391 0.008426000364124775 -0.09904400259256363 0.015062999911606312
          0.010230000130832195 -0.09853599965572357 0.01627100072801113 0.005572999827563763 -0.09717600047588348 0.01537999976426363
          0.004416000097990036 -0.09819500148296356 0.012616000138223171 -0.0010930000571534038 -0.08624999970197678 0.0114120002835989
          0.002615999896079302 -0.09692800045013428 0.011241000145673752 0.0033030000049620867 -0.09853199869394302 0.011824999935925007
          0.00940100010484457 -0.08942300081253052 0.015103000216186047 0.007991000078618526 -0.0886629968881607 0.016937000676989555
          0.0015910000074654818 -0.07186000049114227 0.01450200006365776 -0.0033130000811070204 -0.06615000218153 0.011957000009715557
          -0.00508299982175231 -0.07021799683570862 0.012707999907433987 0.005936000030487776 -0.08456999808549881 0.01862199977040291
          0.003924000076949596 -0.07792700082063675 0.01748800091445446 0.010135999880731106 -0.0905660018324852 0.01603800058364868
          0.011215000413358212 -0.09621399641036987 0.01750900037586689 0.009050000458955765 -0.10074400156736374 0.016950000077486038
          0.007468000054359436 -0.10019700229167938 0.01594500057399273 0.008953000418841839 -0.10113900154829025 0.01933000050485134
          0.003882999997586012 -0.09909500181674957 0.012094000354409218 0.005594999995082617 -0.10063999891281128 0.01515199989080429
          -0.0027050001081079245 -0.08947300165891647 0.019468000158667564 0.0004349999944679439 -0.0958390012383461 0.012009000405669212
          -0.000291000003926456 -0.09483599662780762 0.018271999433636665 -0.001221999991685152 -0.09330099821090698 0.018451999872922897
          0.0007270000060088933 -0.09743800014257431 0.012488000094890594 0.0009720000089146197 -0.09844599664211273 0.013398000039160252
          0.008016999810934067 -0.09023399651050568 0.022637000307440758 0.011086000129580498 -0.09438200294971466 0.02219099923968315
          0.00038899999344721437 -0.06239499896764755 0.01362599991261959 -0.0016560000367462635 -0.06251899898052216 0.012373000383377075
          -0.007048000115901232 -0.05141200125217438 0.012485000304877758 -0.00431999983265996 -0.07625199854373932 0.01902100071310997
          -0.008201000280678272 -0.050700001418590546 0.014921000227332115 -0.006767000071704388 -0.057266999036073685 0.017438000068068504
          0.006337999831885099 -0.08684899657964706 0.023941999301314354 0.0033770001027733088 -0.08008100092411041 0.020748000591993332
          0.004908000119030476 -0.08399800211191177 0.02230899967253208 -0.0006270000012591481 -0.06889300048351288 0.01929200068116188
          0.0008510000188834965 -0.06155800074338913 0.01589599996805191 -0.0003549999964889139 -0.06534499675035477 0.01844099909067154
          0.01131999958306551 -0.09768600016832352 0.020340999588370323 0.00773600023239851 -0.10158900171518326 0.0178810004144907
          0.008191999979317188 -0.10075099766254425 0.023073000833392143 0.002065999899059534 -0.09965600073337555 0.01740100048482418
          0.005338999908417463 -0.10196200013160706 0.017938999459147453 -0.0023300000466406345 -0.08717100322246552 0.022307999432086945
          -0.001567999948747456 -0.09352699667215347 0.02026199921965599 -0.003191000083461404 -0.09093400090932846 0.02169400081038475
          0.00037799999699927866 -0.09725400060415268 0.012994999997317791 -0.00015799999528098851 -0.09489399939775467 0.020222999155521393
          0.0005590000073425472 -0.09720499813556671 0.020438000559806824 0.00033400001120753586 -0.09850099682807922 0.016685999929904938
          0.0007939999923110008 -0.09891200065612793 0.015572000294923782 0.008798999711871147 -0.09060999751091003 0.02675200067460537
          0.007918000221252441 -0.08781199902296066 0.02629699930548668 0.008636999875307083 -0.09144999831914902 0.02527100034058094
          0.00951400026679039 -0.095319002866745 0.02621299959719181 -0.0003530000103637576 -0.05034000054001808 0.009465999901294708
          0.0007600000244565308 -0.04602200165390968 0.008479000069200993 -0.00747800013050437 -0.04599300026893616 0.01123099960386753
          0.00003199999991920777 -0.08523499965667725 0.0234179999679327 -0.0030670000705868006 -0.07243599742650986 0.02033800072968006
          -0.00850799959152937 -0.04110400006175041 0.018425000831484795 -0.009345999918878078 -0.04068100079894066 0.01732500083744526
          -0.009862000122666359 -0.04024599865078926 0.013492000289261341 -0.008387000299990177 -0.04221399873495102 0.010658999904990196
          -0.0036849998869001865 -0.06596600264310837 0.019639000296592712 -0.004104999825358391 -0.050126999616622925 0.019058000296354294
          -0.005016000010073185 -0.04463199898600578 0.01944199949502945 0.005944000091403723 -0.08656500279903412 0.02480500005185604
          0.00686000008136034 -0.08709300309419632 0.025492999702692032 0.0012890000361949205 -0.08102100342512131 0.02266399934887886
          0.003355999942868948 -0.08737199753522873 0.024550000205636024 0.0007960000075399876 -0.04983599856495857 0.013802999630570412
          -0.000004999999873689376 -0.05365300178527832 0.016922999173402786 -0.00006199999916134402 -0.059689000248909 0.017323000356554985
          -0.00266400002874434 -0.05629400163888931 0.018769999966025352 0.009006000123918056 -0.09957999736070633 0.023722000420093536
          0.006157000083476305 -0.1014930009841919 0.021470999345183372 0.007872000336647034 -0.09963499754667282 0.024522000923752785
          0.0033019999973475933 -0.10075200349092484 0.019411999732255936 0.0018029999919235706 -0.09828700125217438 0.022247999906539917
          -0.002643000101670623 -0.0910239964723587 0.02387399971485138 -0.0018090000376105309 -0.08944100141525269 0.024512000381946564
          0.0003459999861661345 -0.09489399939775467 0.021922999992966652 0.0007379999733529985 -0.09288699924945831 0.02349199913442135
          -0.002303000073879957 -0.09231399744749069 0.022822000086307526 0.001988000003620982 -0.09577099978923798 0.022763000801205635
          0.009069999679923058 -0.09201200306415558 0.027062999084591866 0.008201999589800835 -0.08983500301837921 0.027782000601291656
          0.007426000200212002 -0.08795499801635742 0.026819000020623207 0.008275999687612057 -0.09528400003910065 0.027434999123215675
          0.007880999706685543 -0.09670999646186829 0.02676299959421158 0.008829000405967236 -0.0923290029168129 0.02751999907195568
          0.0019509999547153711 -0.045131001621484756 0.011474999599158764 -0.006074000149965286 -0.041443999856710434 0.008314999751746655
          0.00133200001437217 -0.04178199917078018 0.006231999956071377 -0.009283999912440777 -0.038401998579502106 0.019842000678181648
          -0.00559999980032444 -0.04201800003647804 0.020145999267697334 -0.01104000024497509 -0.03692900016903877 0.015660999342799187
          -0.011130000464618206 -0.03753599897027016 0.013635000213980675 -0.011074000038206577 -0.03662300109863281 0.010913999751210213
          -0.009251000359654427 -0.03989500179886818 0.009549999609589577 -0.00786999985575676 -0.04085699841380119 0.008971000090241432
          -0.0013330000219866633 -0.05010800063610077 0.018404999747872353 -0.002002999885007739 -0.0440870001912117 0.01918400079011917
          0.005293000023812056 -0.08901900053024292 0.025861000642180443 0.00725100003182888 -0.0883840024471283 0.027573000639677048
          -0.0011190000222995877 -0.0915130004286766 0.02447899989783764 0.004162999801337719 -0.09189700335264206 0.025185000151395798
          0.002131999935954809 -0.09143300354480743 0.02435700036585331 0.0006060000159777701 -0.0442809984087944 0.017240000888705254
          0.0031369999051094055 -0.09822700172662735 0.02398099936544895 0.0020989999175071716 -0.09411600232124329 0.023459000512957573
          0.004612000193446875 -0.09284999966621399 0.025404000654816628 0.005576000083237886 -0.09523499757051468 0.026820000261068344
          0.005979999899864197 -0.0906819999217987 0.027171000838279724 0.008333000354468822 -0.09250599890947342 0.027888000011444092
          0.0058929999358952045 -0.09271600097417831 0.027674999088048935 0.003898999886587262 -0.03873800113797188 0.013465999625623226
          0.0034390001092106104 -0.03821700066328049 0.006564000155776739 0.004271000158041716 -0.038419000804424286 0.009882999584078789
          -0.0006050000083632767 -0.03855299949645996 0.004912999924272299 -0.0070779998786747456 -0.040894001722335815 0.008119000121951103
          0.0033179998863488436 -0.03739599883556366 0.005495999939739704 -0.006147000007331371 -0.03555800020694733 0.02309500053524971
          -0.008004999719560146 -0.032010000199079514 0.020326999947428703 -0.008762000128626823 -0.030024999752640724 0.018014000728726387
          -0.01107999961823225 -0.034641001373529434 0.014457999728620052 -0.01133199967443943 -0.03600599989295006 0.013040999881923199
          -0.010803000070154667 -0.03495499864220619 0.007701999973505735 -0.010724999941885471 -0.03314200043678284 0.008492999710142612
          -0.010468999855220318 -0.033045001327991486 0.010821999981999397 -0.004098000004887581 -0.03666200116276741 0.022561000660061836
          -0.001984999980777502 -0.0395440012216568 0.01978899911046028 0.0019680000841617584 -0.03957900032401085 0.01685499958693981
          -0.0008060000254772604 -0.039758000522851944 0.018852999433875084 0.002369999885559082 -0.03848600015044212 0.01620499975979328
          0.002492999890819192 -0.03766300156712532 0.015301000326871872 0.0041240002028644085 -0.03783600032329559 0.01232299953699112
          0.0036150000523775816 -0.03700999915599823 0.006419000215828419 0.0036410000175237656 -0.03655099868774414 0.007294000126421452
          0.003628999926149845 -0.03572800010442734 0.00901500042527914 0.0036100000143051147 -0.03578300029039383 0.010734000243246555
          0.0021329999435693026 -0.032930001616477966 0.003358999965712428 0.004534999839961529 -0.03412900120019913 0.004674999974668026
          -0.009291999973356724 -0.03394100069999695 0.006087000016123056 -0.006291999947279692 -0.03286600112915039 0.021900000050663948
          -0.0055149998515844345 -0.034519001841545105 0.02301100082695484 -0.007751999888569117 -0.030528999865055084 0.019464999437332153
          -0.006417000200599432 -0.031293001025915146 0.020771000534296036 -0.0085249999538064 -0.02969999983906746 0.01853499934077263
          -0.009242000058293343 -0.03066200017929077 0.01661599986255169 -0.008334999904036522 -0.029298000037670135 0.017312999814748764
          -0.010087000206112862 -0.032287999987602234 0.012879000045359135 -0.009898999705910683 -0.033160001039505005 0.006564999930560589
          -0.009116999804973602 -0.03177899867296219 0.007340999785810709 -0.008837999776005745 -0.03130200132727623 0.011758999899029732
          -0.009123999625444412 -0.031870000064373016 0.010215999558568 -0.004430000204592943 -0.0331760011613369 0.022241000086069107
          -0.0033360000234097242 -0.03461100161075592 0.02127699926495552 -0.0011060000397264957 -0.03745099902153015 0.01827399991452694
          0.0013289999915286899 -0.038314998149871826 0.01727299951016903 0.0000940000027185306 -0.03683200106024742 0.018008999526500702
          0.0017140000127255917 -0.03585600107908249 0.013047000393271446 0.000371000001905486 -0.036010999232530594 0.013942999765276909
          0.00027200000477023423 -0.035881999880075455 0.015855999663472176 0.0031220000237226486 -0.03552199900150299 0.01278000045567751
          0.004220000002533197 -0.03545000031590462 0.005969000048935413 0.004029000177979469 -0.03429200127720833 0.010102000087499619
          0.005067000165581703 -0.0341779999434948 0.005696000065654516 0.00445799995213747 -0.034269001334905624 0.008728000335395336
          0.002099999925121665 -0.034327998757362366 0.012412000447511673 0.00253800000064075 -0.03195200115442276 0.004126999992877245
          -0.00686099985614419 -0.03315100073814392 0.005688000004738569 -0.003959000110626221 -0.03243099898099899 0.0053889998234808445
          0.004693000111728907 -0.03336599841713905 0.004765000194311142 -0.0055610002018511295 -0.03229700028896332 0.021841999143362045
          -0.007699999958276749 -0.030326999723911285 0.014316000044345856 -0.006899000145494938 -0.028839999809861183 0.016318999230861664
          -0.006198999937623739 -0.02886899933218956 0.01666799932718277 -0.004681000020354986 -0.03090200014412403 0.020461000502109528
          -0.008541000075638294 -0.03181099891662598 0.006558000110089779 -0.00784400012344122 -0.031640999019145966 0.007149999961256981
          -0.005268000066280365 -0.0315140001475811 0.012555999681353569 -0.0008740000193938613 -0.032749999314546585 0.01016900036484003
          -0.00507500022649765 -0.031769998371601105 0.008217000402510166 -0.002311999909579754 -0.03361300006508827 0.02090200036764145
          -0.00034100000630132854 -0.033883001655340195 0.01929599978029728 0.00012599999899975955 -0.034008000046014786 0.018477000296115875
          0.00023799999326001853 -0.03470500186085701 0.01331700012087822 -0.0002410000015515834 -0.03325999900698662 0.013685000129044056
          0.004038000013679266 -0.0331679992377758 0.009812000207602978 0.0033340000081807375 -0.032767001539468765 0.010634999722242355