<?xml version="1.0"?>
<VTKFile type="PolyData" version="0.1" byte_order="LittleEndian" header_type="UInt32" compressor="vtkZLibDataCompressor">
  <PolyData>
    <Piece NumberOfPoints="320" NumberOfVerts="0" NumberOfLines="0" NumberOfStrips="0" NumberOfPolys="636">
      <PointData Normals="Normals">
        <DataArray type="Float32" Name="Normals" NumberOfComponents="3" format="ascii" RangeMin="0.9999992963809523" RangeMax="1.0000006937688182">
          0.6263139843940735 0.18570800125598907 0.7571280002593994 0.836001992225647 0.4644089937210083 0.2922770082950592
          0.835116982460022 0.11114700138568878 0.5387259721755981 0.6798840165138245 -0.014632999897003174 0.7331730127334595
          0.6292840242385864 0.7210549712181091 0.28996899724006653 0.8465409874916077 0.4526369869709015 0.2801569998264313
          0.9850000143051147 0.12454500049352646 0.11943300068378448 0.9182199835777283 0.27404001355171204 0.28596100211143494
          0.8053399920463562 0.38918399810791016 0.44717100262641907 0.9082210063934326 0.4135960042476654 -0.0638279989361763
          0.7978540062904358 0.5656229853630066 -0.20856499671936035 0.5971940159797668 -0.07976999878883362 0.7981209754943848
          0.9782519936561584 -0.04162300005555153 0.2032029926776886 0.9552729725837708 0.05440099909901619 0.290677011013031
          0.573868989944458 -0.2374430000782013 0.7837700247764587 0.9638850092887878 -0.25944000482559204 0.060137998312711716
          0.5910540223121643 0.6449339985847473 -0.4844740033149719 0.5927550196647644 0.7875199913978577 -0.1686830073595047
          0.7721689939498901 0.406578004360199 -0.4883129894733429 0.9337570071220398 -0.06386300176382065 -0.35216400027275085
          0.8678460121154785 0.21376000344753265 0.44849899411201477 0.7238720059394836 0.37668898701667786 0.5780259966850281
          0.4622440040111542 0.13884000480175018 0.8758159875869751 0.3572100102901459 0.42955198884010315 0.8293889760971069
          0.9474130272865295 0.2630940079689026 0.1821810007095337 0.6613339781761169 0.24716100096702576 0.708200991153717
          0.7525460124015808 0.3940120041370392 -0.5276640057563782 0.8870400190353394 -0.08299999684095383 0.45416998863220215
          0.9911050200462341 0.030646000057458878 0.12950800359249115 0.7845960259437561 0.06325600296258926 0.6167730093002319
          0.5957769751548767 0.20855799317359924 0.7755990028381348 0.7805529832839966 -0.575169026851654 0.2447810024023056
          0.6450049877166748 -0.33654800057411194 0.6860780119895935 0.7390050292015076 -0.6223499774932861 -0.25797799229621887
          0.6893389821052551 0.30072298645973206 -0.659072995185852 0.7681769728660583 0.42505499720573425 -0.4787819981575012
          0.7767720222473145 -0.3680739998817444 -0.5110250115394592 0.5431209802627563 0.46927300095558167 0.6962770223617554
          0.3165070116519928 0.2523219883441925 0.9144160151481628 -0.07541300356388092 -0.01254700031131506 0.9970729947090149
          -0.04232800006866455 -0.011729000136256218 0.9990350008010864 -0.00596500001847744 0.243259996175766 0.9699429869651794
          0.585889995098114 0.2950100004673004 0.7547860145568848 0.7986930012702942 0.2155430018901825 0.5618100166320801
          0.678184986114502 0.09539200365543365 0.7286739945411682 0.9920399785041809 0.1255120038986206 -0.01013800036162138
          0.7248669862747192 0.17850899696350098 -0.6653590202331543 -0.21925200521945953 0.10732600092887878 0.969747006893158
          -0.03065899945795536 0.09263499826192856 -0.9952279925346375 0.3631869852542877 0.30041900277137756 -0.8819540143013
          0.6252959966659546 0.6131470203399658 -0.4827579855918884 0.21970699727535248 0.4432559907436371 -0.8690530061721802
          0.657056987285614 -0.3485479950904846 0.6684229969978333 0.5753780007362366 -0.5584449768066406 0.5975610017776489
          0.8833950161933899 0.1256359964609146 0.45147401094436646 -0.18827800452709198 -0.031032999977469444 0.9816250205039978
          0.4473220109939575 0.02011900022625923 0.8941469788551331 0.4292460083961487 -0.8843420147895813 0.18354299664497375
          0.17805199325084686 -0.9168409705162048 -0.35735198855400085 0.791363000869751 0.30189698934555054 -0.531603991985321
          0.6544920206069946 -0.11047299951314926 -0.7479540109634399 0.5343610048294067 0.5869020223617554 -0.6082789897918701
          0.8369860053062439 0.22815300524234772 -0.49739399552345276 0.40121498703956604 -0.6008210182189941 -0.6914049983024597
          -0.6308519840240479 -0.14242300391197205 0.762719988822937 -0.6706860065460205 -0.14881299436092377 0.7266600131988525
          0.5136659741401672 0.22899200022220612 0.8268679976463318 -0.1482129991054535 0.1735360026359558 0.9736109972000122
          0.9701939821243286 0.048326000571250916 0.23746100068092346 0.3528960049152374 0.08760900050401688 0.931551992893219
          0.1856909990310669 0.05098000168800354 0.9812849760055542 0.6059209704399109 0.06897400319576263 0.7925289869308472
          0.767270028591156 0.08569200336933136 -0.6355730295181274 0.7651349902153015 -0.07519499957561493 -0.6394640207290649
          0.1445229947566986 -0.025374000892043114 -0.9891759753227234 -0.7953100204467773 -0.1011509969830513 0.5977039933204651
          -0.2665660083293915 0.15573899447917938 -0.9511510133743286 -0.7592350244522095 0.052101001143455505 -0.6487280130386353
          -0.7278220057487488 -0.09420300275087357 -0.679265022277832 -0.4524880051612854 -0.10486800223588943 -0.8855829834938049
          -0.31394699215888977 0.6429529786109924 -0.6986039876937866 0.06879699975252151 0.8194040060043335 -0.5690730214118958
          -0.6180469989776611 0.026637999340891838 -0.7856900095939636 -0.1576489955186844 -0.27277299761772156 0.9490739703178406
          -0.24845199286937714 -0.6678150296211243 0.7016370296478271 -0.11646100133657455 -0.8199390172958374 0.560479998588562
          -0.21852299571037292 -0.8872569799423218 0.40623000264167786 -0.6800640225410461 -0.25610700249671936 0.6869660019874573
          -0.25777000188827515 -0.9660930037498474 -0.014801999554038048 -0.23933200538158417 -0.7919179797172546 -0.5617709755897522
          -0.7218499779701233 -0.5962250232696533 -0.3513520061969757 0.6582610011100769 0.09183599799871445 -0.7471669912338257
          0.33421799540519714 -0.13267099857330322 -0.9331110119819641 -0.11038099974393845 -0.5164809823036194 -0.8491550087928772
          0.13871000707149506 0.13145899772644043 -0.9815689921379089 0.03147599846124649 0.6033329963684082 -0.7968680262565613
          -0.7007539868354797 -0.28824999928474426 0.6525760293006897 -0.8030920028686523 -0.17045700550079346 0.5709530115127563
          -0.13739199936389923 0.050567999482154846 0.9892249703407288 0.908115029335022 0.06033800169825554 0.4143509864807129
          0.25386399030685425 -0.01501299999654293 0.9671239852905273 0.3553430140018463 -0.06994999945163727 0.9321150183677673
          0.7086939811706543 -0.1328829973936081 0.6928889751434326 0.9409210085868835 -0.29915300011634827 -0.15866799652576447
          0.6633449792861938 -0.2988489866256714 -0.6860489845275879 0.31907299160957336 -0.20804500579833984 -0.9246129989624023
          -0.024970000609755516 -0.13124899566173553 -0.991034984588623 0.05836300179362297 -0.22070300579071045 -0.97359299659729
          -0.9749270081520081 -0.16859999299049377 -0.14522600173950195 -0.8271759748458862 -0.14161400496959686 0.5438060164451599
          -0.9815580248832703 -0.11411800235509872 -0.15336300432682037 -0.9938730001449585 0.10565999895334244 0.03243900090456009
          -0.8359770178794861 -0.014808000065386295 -0.5485640168190002 -0.5441200137138367 -0.21785500645637512 -0.810230016708374
          -0.9091029763221741 0.10390099883079529 -0.40340501070022583 -0.5559350252151489 0.42938899993896484 -0.7117310166358948
          -0.9380249977111816 -0.13393600285053253 -0.31964099407196045 -0.646236002445221 -0.4035229980945587 -0.647724986076355
          -0.6296550035476685 -0.4983940124511719 -0.5959349870681763 -0.1445859968662262 -0.8805819749832153 0.4512979984283447
          -0.6071609854698181 -0.6090360283851624 0.5103229880332947 -0.4725619852542877 -0.7985050082206726 0.3729279935359955
          -0.7268739938735962 -0.6836450099945068 -0.06545700132846832 -0.7525650262832642 -0.3594920039176941 0.551734983921051
          -0.8285139799118042 -0.4079580008983612 -0.3835799992084503 -0.8553419709205627 -0.20221999287605286 -0.4769670069217682
          -0.7725859880447388 -0.27153700590133667 -0.5739150047302246 -0.31678199768066406 -0.17997099459171295 -0.9312679767608643
          -0.8176289796829224 -0.20852600038051605 -0.5366569757461548 -0.8581410050392151 -0.030139999464154243 -0.5125290155410767
          -0.590507984161377 -0.45517799258232117 0.6664180159568787 -0.8429110050201416 -0.22576799988746643 0.4883959889411926
          -0.6275290250778198 -0.5347499847412109 0.5659059882164001 -0.38405799865722656 -0.1324629932641983 0.9137579798698425
          0.605472981929779 -0.18835100531578064 0.7732570171356201 0.08118899911642075 -0.2149450033903122 0.9732459783554077
          0.8102260231971741 -0.3227980136871338 0.4892190098762512 0.5565919876098633 -0.2673799991607666 0.7865840196609497
          0.9235919713973999 -0.12697899341583252 -0.361737996339798 0.9545869827270508 -0.28697100281715393 -0.08007500320672989
          0.15874600410461426 -0.1658799946308136 -0.9732850193977356 0.346096009016037 -0.32948198914527893 -0.8784409761428833
          0.6483269929885864 -0.2644430100917816 -0.713962972164154 -0.35660600662231445 0.030806999653577805 -0.9337469935417175
          -0.13879099488258362 -0.16540099680423737 -0.976410984992981 -0.18942900002002716 -0.374193012714386 -0.9077979922294617
          -0.901291012763977 -0.3156690001487732 -0.29669299721717834 -0.7254340052604675 -0.08098900318145752 0.6835100054740906
          -0.6900820136070251 -0.008043999783694744 0.7236869931221008 -0.9360439777374268 -0.26632699370384216 0.229980006814003
          -0.9685840010643005 -0.23615099489688873 -0.07795699685811996 -0.5972480177879333 -0.36091798543930054 -0.7162629961967468
          -0.8443139791488647 -0.4231559932231903 -0.3287450075149536 -0.7662590146064758 -0.6353070139884949 -0.0960879996418953
          -0.6379269957542419 -0.7023249864578247 -0.3158929944038391 -0.8032270073890686 -0.5954139828681946 0.017570000141859055
          -0.8793820142745972 -0.4604249894618988 0.12123200297355652 -0.8503730297088623 -0.5035780072212219 -0.15256300568580627
          -0.767890989780426 -0.5181710124015808 0.37661999464035034 -0.7321149706840515 -0.6364399790763855 0.2428009957075119
          -0.6458359956741333 -0.11753500252962112 0.7543749809265137 0.39643698930740356 -0.28124499320983887 0.8739209771156311
          0.7308800220489502 -0.18392600119113922 0.657256007194519 -0.3295539915561676 -0.21723100543022156 0.9188060164451599
          0.8160790205001831 -0.28846800327301025 0.5008000135421753 0.617779016494751 -0.2920660078525543 0.7301009893417358
          0.5173010230064392 -0.03589000180363655 0.8550509810447693 0.6539769768714905 0.14767999947071075 -0.7419599890708923
          0.9074500203132629 -0.14303399622440338 -0.3950650095939636 0.8246080279350281 0.01259700022637844 -0.565563976764679
          0.9100390076637268 -0.35245800018310547 -0.21818099915981293 0.20293299853801727 0.01766199991106987 -0.9790329933166504
          -0.468966007232666 0.27474498748779297 -0.8393959999084473 -0.020375000312924385 0.22052200138568878 -0.9751690030097961
          0.40801799297332764 -0.04452500119805336 -0.9118880033493042 -0.4358159899711609 0.2968370020389557 -0.8496779799461365
          -0.5719069838523865 0.19266900420188904 -0.797370970249176 -0.3176020085811615 0.1505970060825348 -0.9361889958381653
          -0.46335500478744507 -0.39537501335144043 -0.7930830121040344 -0.41220399737358093 -0.5424280166625977 -0.7320240139961243
          -0.7343130111694336 -0.5877140164375305 -0.33967098593711853 -0.7536739706993103 0.02323400042951107 0.656836986541748
          -0.4198470115661621 -0.07458099722862244 0.9045249819755554 -0.7046520113945007 -0.2385060042142868 0.668267011642456
          -0.8764700293540955 -0.4383449852466583 -0.1991340070962906 -0.9158120155334473 -0.30913999676704407 -0.2563610076904297
          -0.8896179795265198 -0.3213990032672882 0.32447201013565063 -0.8671650290489197 -0.16459299623966217 0.47003498673439026
          -0.29596298933029175 -0.50136798620224 0.8130409717559814 0.371302992105484 -0.41402700543403625 0.8310930132865906
          -0.8635590076446533 -0.3779340088367462 0.33381399512290955 0.7916079759597778 -0.03080100007355213 0.6102529764175415
          -0.01788399927318096 -0.37522000074386597 0.9267629981040955 0.19702699780464172 -0.11542200297117233 0.973580002784729
          0.3454749882221222 0.6516069769859314 0.6753180027008057 0.265608012676239 0.869488000869751 0.4164640009403229
          0.409078985452652 0.326898992061615 -0.851934015750885 0.4575679898262024 -0.11333200335502625 -0.8819230198860168
          -0.20967799425125122 0.07963799685239792 -0.9745219945907593 -0.0261049997061491 0.5203009843826294 -0.8535839915275574
          0.7898589968681335 -0.24633200466632843 -0.5616430044174194 0.7144489884376526 -0.2647869884967804 -0.6476489901542664
          0.9900670051574707 -0.1250690072774887 -0.06421999633312225 0.02688799984753132 0.27110999822616577 -0.9621729850769043
          -0.10720299929380417 0.4348590075969696 -0.8940939903259277 -0.3483999967575073 0.3266409933567047 -0.878591001033783
          -0.5208920240402222 0.22719700634479523 -0.8228319883346558 -0.5464929938316345 0.17047299444675446 -0.8199290037155151
          -0.2786079943180084 0.18300999701023102 -0.9428070187568665 -0.49790000915527344 0.07320699840784073 -0.8641390204429626
          -0.4196830093860626 -0.04150500148534775 -0.9067209959030151 -0.7650089859962463 -0.04998299852013588 0.6420770287513733
          -0.2518259882926941 -0.2229750007390976 0.941735029220581 -0.650475025177002 -0.3694620132446289 0.6636109948158264
          -0.8586000204086304 -0.5111470222473145 0.03919000178575516 -0.6891970038414001 -0.4362800121307373 -0.5785049796104431
          -0.8305739760398865 -0.3844650089740753 0.40290600061416626 -0.8076249957084656 -0.15147599577903748 0.5699099898338318
          -0.7648739814758301 -0.28308001160621643 0.5786479711532593 -0.5489929914474487 -0.5023850202560425 0.6679940223693848
          -0.7299429774284363 -0.4574039876461029 0.507902979850769 0.8830850124359131 0.35550400614738464 0.30623099207878113
          0.1286340057849884 0.23644199967384338 0.9630929827690125 -0.5142580270767212 -0.032248999923467636 0.8570290207862854
          0.0910710021853447 0.9562289714813232 0.27808699011802673 -0.11049199849367142 0.8836719989776611 0.4548789858818054
          -0.41515299677848816 0.8091480135917664 0.41584399342536926 -0.3021160066127777 0.5683490037918091 0.765313982963562
          0.5110369920730591 0.8182910084724426 -0.2631379961967468 0.11604300141334534 0.9897180199623108 -0.08362399786710739
          -0.02348100021481514 0.9997239708900452 0.0008060000254772604 0.03190299868583679 0.9991469979286194 0.026205999776721
          0.29166901111602783 -0.3239380121231079 -0.8999959826469421 -0.28175899386405945 -0.15996000170707703 -0.9460570216178894
          -0.3636550009250641 0.22659100592136383 -0.9035549759864807 -0.5943970084190369 -0.0075980001129209995 -0.8041359782218933
          -0.10318499803543091 0.46769100427627563 -0.8778489828109741 0.6804230213165283 -0.384782999753952 -0.6236720085144043
          0.7969629764556885 0.013315999880433083 -0.6038810014724731 0.7106810212135315 0.6588090062141418 -0.2467859983444214
          0.6220059990882874 0.6549000144004822 -0.42920300364494324 -0.4746130108833313 0.009449999779462814 -0.8801440000534058
          0.011447999626398087 0.1815750002861023 -0.9833099842071533 0.2938629984855652 0.34908801317214966 -0.8898220062255859
          -0.3650220036506653 0.015007000416517258 -0.9308779835700989 -0.5026119947433472 0.16575099527835846 -0.8484740257263184
          -0.08527900278568268 -0.038079001009464264 -0.9956290125846863 0.20147299766540527 0.10886099934577942 -0.9734259843826294
          -0.12405399978160858 -0.008539999835193157 -0.9922389984130859 -0.2657249867916107 0.05000799894332886 -0.9627509713172913
          -0.3349269926548004 -0.3476490080356598 0.8757650256156921 -0.6275699734687805 -0.4839569926261902 -0.6098700165748596
          -0.9127640128135681 -0.37485000491142273 -0.162321999669075 -0.9610049724578857 -0.07880900055170059 0.26506298780441284
          -0.47705599665641785 0.02934500016272068 0.8783829808235168 -0.4986119866371155 0.29034799337387085 0.816752016544342
          -0.7996810078620911 -0.22116899490356445 0.5582069754600525 -0.8000869750976562 0.17783600091934204 0.5729169845581055
          -0.8221009969711304 0.21462100744247437 0.5273410081863403 -0.18032999336719513 0.9214779734611511 0.34403300285339355
          -0.2584719955921173 0.7680270075798035 0.5859410166740417 -0.6943230032920837 0.5279899835586548 0.48902198672294617
          0.2998979985713959 0.9256340265274048 0.23078900575637817 -0.02527800016105175 0.7847189903259277 0.6193360090255737
          0.441305011510849 0.876757025718689 0.1911740005016327 0.020340999588370323 0.7558500170707703 0.654429018497467
          0.46345001459121704 0.8240150213241577 0.3259040117263794 -0.39601901173591614 -0.019411999732255936 -0.9180369973182678
          0.42623698711395264 -0.17984700202941895 -0.8865529894828796 0.43068501353263855 0.4899410009384155 -0.7579370141029358
          -0.6179519891738892 0.21507099270820618 -0.7562270164489746 -0.6368610262870789 0.03916199877858162 -0.7699829936027527
          0.8236889839172363 0.2728619873523712 -0.4970740079879761 0.45142099261283875 0.23027600347995758 -0.8620859980583191
          0.1458909958600998 0.9684270024299622 0.20215100049972534 0.6589800119400024 0.7098690271377563 -0.24865800142288208
          0.22303199768066406 0.9341080188751221 0.27874401211738586 -0.08968599885702133 -0.11990000307559967 -0.9887269735336304
          -0.3028720021247864 -0.17281299829483032 -0.9372320175170898 0.9626960158348083 0.09519200026988983 -0.25328999757766724
          -0.29022398591041565 -0.22257000207901 -0.9307159781455994 -0.043435998260974884 -0.0007910000276751816 -0.9990559816360474
          0.12886199355125427 0.21923799812793732 -0.9671239852905273 -0.6510859727859497 0.14247700572013855 -0.745510995388031
          -0.7611340284347534 0.08308299630880356 -0.6432510018348694 -0.44763100147247314 -0.021020999178290367 -0.8939710259437561
          -0.5931339859962463 0.019058000296354294 -0.8048779964447021 -0.9786109924316406 0.20498600602149963 -0.017338000237941742
          -0.5048180222511292 0.5935770273208618 0.6267579793930054 0.48608899116516113 0.7516480088233948 0.44580599665641785
          0.4279620051383972 0.8757619857788086 0.22335900366306305 0.5956249833106995 0.7961680293083191 0.10652799904346466
          0.16994699835777283 -0.4056380093097687 -0.8980960249900818 -0.26946398615837097 0.11355900019407272 -0.9562910199165344
          -0.030453000217676163 0.6371440291404724 -0.7701429724693298 -0.23446600139141083 0.2174060046672821 -0.9475020170211792
          -0.5048990249633789 0.30067700147628784 -0.8091170191764832 0.506758987903595 0.03535100072622299 -0.8613629937171936
          0.6790599822998047 0.4858950078487396 -0.5502579808235168 0.40077200531959534 0.8725600242614746 0.2793219983577728
          0.46366599202156067 0.8676220178604126 -0.17957399785518646 0.3005639910697937 0.9537439942359924 -0.005876999814063311
          -0.10884899646043777 0.5776669979095459 -0.8089820146560669 -0.2015099972486496 -0.2464430034160614 -0.9479770064353943
          -0.05959700047969818 0.12421499937772751 -0.9904639720916748 -0.15194900333881378 0.02825699932873249 -0.9879840016365051
          -0.17518599331378937 -0.25433701276779175 -0.9511169791221619 -0.8782349824905396 0.40565499663352966 -0.2532710134983063
          -0.7073310017585754 0.3457320034503937 -0.6165649890899658 -0.06366200000047684 0.5621489882469177 -0.8245819807052612
          -0.4043389856815338 0.4703809916973114 -0.7843800187110901 -0.8198239803314209 0.5671749711036682 0.07875200361013412
          0.04892599955201149 0.9840549826622009 0.17100200057029724 0.5408899784088135 0.8172159790992737 -0.19899000227451324
          -0.0003239999932702631 0.38471299409866333 -0.9230359792709351 -0.2333260029554367 0.13854800164699554 -0.96247798204422
          0.44265300035476685 0.8501369953155518 -0.28517499566078186 0.2716670036315918 0.6875680088996887 -0.6733850240707397
          -0.28023800253868103 0.8289920091629028 -0.48398199677467346 -0.14000800251960754 0.955007016658783 -0.26145699620246887
          <InformationKey name="L2_NORM_RANGE" location="vtkDataArray" length="2">
            <Value index="0">
              0.99999929638
            </Value>
            <Value index="1">
              1.0000006938
            </Value>
          </InformationKey>
        </DataArray>
      </PointData>
      <CellData>
      </CellData>
      <Points>
        <DataArray type="Float32" Name="Points" NumberOfComponents="3" format="ascii" RangeMin="0.02948340969329652" RangeMax="0.10356665476856602">
          0.006738000083714724 -0.09287499636411667 0.0024770000018179417 0.0035059999208897352 -0.08817599713802338 0.0032079999800771475
          0.004443999845534563 -0.09191299974918365 0.0034360000863671303 0.0068870000541210175 -0.09843099862337112 0.0028750000055879354
          0.005549999885261059 -0.08983699977397919 0.0021279999054968357 0.006792000029236078 -0.09054800122976303 0.0016530000139027834
          0.007895000278949738 -0.09368100017309189 0.0008479999960400164 0.0038620000705122948 -0.08944299817085266 0.005125999916344881
          0.00015799999528098851 -0.08376000076532364 0.00622999994084239 0.0011149999918416142 -0.08351399749517441 0.0015589999966323376
          0.0025629999581724405 -0.0872189998626709 -0.000045000000682193786 0.004592000041157007 -0.09583699703216553 0.003703000023961067
          0.0040710000321269035 -0.09587500244379044 0.004912999924272299 0.004315000027418137 -0.09241999685764313 0.004674999974668026
          0.0065819998271763325 -0.09977699816226959 0.0028989999555051327 0.007546000182628632 -0.09946800023317337 0.0009079999872483313
          0.00418600020930171 -0.08955799788236618 -0.0002460000105202198 0.00636299978941679 -0.0899519994854927 0.0007890000124461949
          0.006697000004351139 -0.09129100292921066 -0.00017800000205170363 0.007577999960631132 -0.09732700139284134 -0.0010189999593421817
          0.0033080000430345535 -0.09060999751091003 0.006527000106871128 0.0029319999739527702 -0.0891600027680397 0.006575999781489372
          0.00031800000579096377 -0.08616500347852707 0.0070859999395906925 0.0010839999886229634 -0.08808299899101257 0.007286000065505505
          -0.0007479999912902713 -0.07799199968576431 0.0018119999440386891 -0.002515000058338046 -0.07879099994897842 0.00800700020045042
          0.001145999995060265 -0.0857430025935173 -0.0013989999424666166 0.0037239999510347843 -0.0979750007390976 0.0036780000664293766
          0.00420599989593029 -0.09758000075817108 0.006035999860614538 0.003020999953150749 -0.09428700059652328 0.008162000216543674
          0.0026759998872876167 -0.09068500250577927 0.008177000097930431 0.006455000024288893 -0.10190299898386002 0.0012760000536218286
          0.005543000064790249 -0.10127899795770645 0.002873999997973442 0.005284000188112259 -0.10274700075387955 -0.0006820000126026571
          0.005078999791294336 -0.09638000279664993 -0.005301999859511852 0.0017209999496117234 -0.0922819972038269 -0.004912000149488449
          0.0065100002102553844 -0.09938400238752365 -0.0032659999560564756 0.0020169999916106462 -0.0891840010881424 0.007788000162690878
          -0.00039500001003034413 -0.08790399879217148 0.0074339997954666615 -0.00177800003439188 -0.08645900338888168 0.007935999892652035
          -0.0033889999613165855 -0.07951600104570389 0.008445000275969505 -0.0007830000249668956 -0.08928799629211426 0.008287999778985977
          -0.004972999915480614 -0.06905300170183182 0.006554000079631805 -0.004519999958574772 -0.06548400223255157 0.004238000139594078
          -0.005020999815315008 -0.0621270015835762 0.0039369999431073666 -0.0038240000139921904 -0.062217000871896744 0.0018560000462457538
          -0.001787999994121492 -0.07581000030040741 -0.0004870000120718032 -0.006800999864935875 -0.06994999945163727 0.007397000212222338
          -0.006647000089287758 -0.06997700035572052 -0.0014570000348612666 -0.0025839998852461576 -0.0816200003027916 -0.002759000053629279
          -0.0007340000011026859 -0.08910900354385376 -0.005799000151455402 -0.0015399999683722854 -0.08590000122785568 -0.004182999953627586
          0.004062000196427107 -0.09914299845695496 0.007803000044077635 0.004362999927252531 -0.10167499631643295 0.004573000129312277
          0.003493000054731965 -0.09627299755811691 0.007331999950110912 0.0005239999736659229 -0.09597600251436234 0.008669000118970871
          0.0028750000055879354 -0.09674900025129318 0.008454999886453152 0.005036999937146902 -0.10309100151062012 0.0013180000241845846
          0.002824000082910061 -0.10309600085020065 -0.003613000037148595 0.0011690000537782907 -0.09403099864721298 -0.007275999989360571
          0.0019239999819546938 -0.09815099835395813 -0.007861999794840813 -0.00033999999868683517 -0.09053099900484085 -0.008426000364124775
          0.0005280000041238964 -0.0934630036354065 -0.00877199973911047 0.0031079999171197414 -0.10201600193977356 -0.004757999908179045
          -0.001969000091776252 -0.08962900191545486 0.007451999932527542 -0.006430999841541052 -0.07341799885034561 0.007185999769717455
          -0.005836999975144863 -0.06576000154018402 0.005766000133007765 -0.007836000062525272 -0.06673599779605865 0.006453999783843756
          -0.004048999864608049 -0.05900600180029869 0.0027520000003278255 -0.006002999842166901 -0.05534299835562706 0.003346000099554658
          -0.005177000071853399 -0.05564599856734276 0.003387999953702092 -0.004604000132530928 -0.05902500078082085 0.003662999952211976
          -0.004569000098854303 -0.06180199980735779 -0.0004619999963324517 -0.0059819999150931835 -0.05319700017571449 -0.001959000015631318
          -0.006401000078767538 -0.06618499755859375 -0.001446999958716333 -0.01054100040346384 -0.06374099850654602 0.0040480000898242
          -0.00520800007507205 -0.08298700302839279 -0.0032550001051276922 -0.006202000193297863 -0.08745399862527847 -0.002598999999463558
          -0.008888999931514263 -0.07383400201797485 -0.0006000000284984708 -0.009814999997615814 -0.06710399687290192 -0.0007820000173524022
          -0.001512999995611608 -0.08899399638175964 -0.006403000093996525 -0.0009720000089146197 -0.08965499699115753 -0.0073460000567138195
          -0.0035780000034719706 -0.08980699628591537 -0.004809000063687563 0.0008219999726861715 -0.09764199703931808 0.00853000022470951
          0.0007949999999254942 -0.09885799884796143 0.007895000278949738 0.0020540000405162573 -0.10026299953460693 0.005894999951124191
          0.0022060000337660313 -0.103302001953125 0.002641000086441636 0.00027600000612437725 -0.09759899973869324 0.00824000034481287
          0.0019490000559017062 -0.10354799777269363 -0.00025599999935366213 0.0017450000159442425 -0.10224699974060059 -0.004894999787211418
          -0.0028909998945891857 -0.10064099729061127 -0.0018579999450594187 0.0007740000146441162 -0.09494999796152115 -0.008934999816119671
          0.00038400001358240843 -0.09536699950695038 -0.00916100014001131 0.0002629999944474548 -0.09837400168180466 -0.008328000083565712
          -0.0005610000225715339 -0.09288299828767776 -0.009503999724984169 -0.0010000000474974513 -0.09078700095415115 -0.008616000413894653
          -0.002715999959036708 -0.09393899887800217 0.005104000214487314 -0.006295999977737665 -0.09104400128126144 0.0028260000981390476
          -0.009240999817848206 -0.058591000735759735 0.005444999784231186 -0.004548000171780586 -0.05557199940085411 0.003017999930307269
          -0.0062339999713003635 -0.052393000572919846 0.0034199999645352364 -0.00940600037574768 -0.05085799843072891 0.00509499991312623
          -0.0033480001147836447 -0.04452100023627281 0.002715999959036708 -0.002245000097900629 -0.03977600112557411 -0.00020900000527035445
          -0.004902000073343515 -0.043528001755476 -0.0024270000867545605 -0.007306999992579222 -0.044440001249313354 -0.004393000155687332
          -0.009575000032782555 -0.05704899877309799 -0.0021389999892562628 -0.007877999916672707 -0.050390999764204025 -0.003235999960452318
          -0.01244799979031086 -0.05784200131893158 0.0011360000353306532 -0.012469000183045864 -0.054350998252630234 0.003341000061482191
          -0.007832000032067299 -0.08420500159263611 0.0008580000139772892 -0.007542999926954508 -0.08924700319766998 -0.0001849999971454963
          -0.007770999800413847 -0.09198799729347229 -0.001820000004954636 -0.011256000027060509 -0.054099999368190765 -0.0022070000413805246
          -0.002308000111952424 -0.09171599894762039 -0.006591999903321266 -0.00145800004247576 -0.09137500077486038 -0.00911100022494793
          -0.002669000066816807 -0.09453800320625305 -0.004985999781638384 -0.004052999895066023 -0.09470199793577194 -0.0030269999988377094
          -0.006947000045329332 -0.09410399943590164 -0.0018149999668821692 0.0004220000118948519 -0.10037299990653992 0.005549999885261059