<?xml version="1.0"?>
<VTKFile type="PolyData" version="0.1" byte_order="LittleEndian" header_type="UInt32" compressor="vtkZLibDataCompressor">
  <PolyData>
    <Piece NumberOfPoints="82" NumberOfVerts="0" NumberOfLines="0" NumberOfStrips="0" NumberOfPolys="160">
      <PointData Normals="Normals">
        <DataArray type="Float32" Name="Normals" NumberOfComponents="3" format="ascii" RangeMin="0.9999993703493653" RangeMax="1.0000007789802359">
          -0.6246010065078735 -0.6094800233840942 -0.48827001452445984 -0.53615802526474 -0.6353549957275391 0.5557510256767273
          -0.4610059857368469 -0.8761420249938965 0.14088599383831024 -0.43498000502586365 -0.750855028629303 -0.4970000088214874
          -0.2806070148944855 -0.7159370183944702 0.6392920017242432 -0.27433401346206665 -0.0698309987783432 -0.9590950012207031
          -0.042736999690532684 -0.003148999996483326 -0.999081015586853 -0.3377859890460968 -0.5434449911117554 -0.7684850096702576
          -0.406235009431839 -0.3528890013694763 -0.8428769707679749 -0.437171995639801 -0.2182530015707016 -0.8724939823150635
          -0.5603200197219849 -0.7635310292243958 0.32103198766708374 0.09634000062942505 0.1208610013127327 0.987982988357544
          -0.4888960123062134 -0.674485981464386 0.5532169938087463 0.25272101163864136 -0.9673519730567932 -0.01903199963271618
          -0.030837999656796455 -0.8306159973144531 -0.555990993976593 -0.28095901012420654 -0.8615710139274597 0.42279699444770813
          -0.027445999905467033 0.1772560030221939 -0.9837819933891296 -0.25598499178886414 -0.630020022392273 -0.7331749796867371
          -0.10156500339508057 -0.8278149962425232 0.5517309904098511 0.065652996301651 -0.19928200542926788 0.9777399897575378
          0.3158720135688782 -0.4062289893627167 -0.8574399948120117 0.40845298767089844 0.3690800070762634 -0.834833025932312
          -0.14272600412368774 0.25200599431991577 -0.9571430087089539 0.28276100754737854 0.6024439930915833 -0.746396005153656
          -0.2750459909439087 0.14455999433994293 -0.950501024723053 0.41301798820495605 0.9027699828147888 -0.12009300291538239
          0.3624410033226013 0.9192109704017639 0.1539050042629242 0.346998006105423 0.7361660003662109 0.5810779929161072
          0.6633710265159607 0.44897401332855225 0.5986329913139343 0.3996869921684265 -0.10747600346803665 0.9103289842605591
          0.04879499971866608 -0.5744069814682007 0.817113995552063 0.39584100246429443 0.6751180291175842 0.6225159764289856
          0.14557300508022308 -0.9180179834365845 0.3688499927520752 0.6924149990081787 -0.6795849800109863 0.24233299493789673
          -0.026514999568462372 0.5297009944915771 -0.8477699756622314 0.18006399273872375 0.7417380213737488 -0.6460660099983215
          0.037188999354839325 0.06686799973249435 -0.9970690011978149 0.33172398805618286 0.7589020133018494 -0.5603809952735901
          -0.250544011592865 -0.8779370188713074 -0.4079900085926056 0.23289400339126587 -0.15828299522399902 0.9595350027084351
          0.07156000286340714 -0.7573189735412598 0.6491129994392395 0.2163960039615631 -0.3905160129070282 0.8948019742965698
          0.33893001079559326 0.37879401445388794 0.8611860275268555 0.8791319727897644 -0.27355900406837463 -0.3902460038661957
          0.8822550177574158 0.4280399978160858 -0.19597899913787842 0.49886199831962585 0.8325960040092468 -0.24066799879074097
          0.9108999967575073 -0.16609999537467957 0.3777190148830414 0.3850780129432678 0.902076005935669 0.19486699998378754
          0.27081501483917236 0.745477020740509 -0.6090350151062012 -0.03916399925947189 -0.5637339949607849 -0.8250269889831543
          -0.29603999853134155 -0.8749129772186279 -0.38325899839401245 0.37274399399757385 0.3239159882068634 0.8695639967918396
          -0.24907100200653076 -0.9527180194854736 0.17404800653457642 0.0012209999840706587 -0.2431579977273941 0.9699860215187073
          0.11498399823904037 -0.22235900163650513 0.9681609869003296 0.2810260057449341 -0.10314299911260605 0.9541410207748413
          0.9963390231132507 -0.040337998420000076 -0.07537899911403656 0.44822901487350464 0.5167179703712463 0.7294470071792603
          -0.5619069933891296 0.7505289912223816 0.347802996635437 -0.25710800290107727 0.9638599753379822 -0.06978199630975723
          -0.30300599336624146 0.039799001067876816 -0.9521570205688477 -0.4614729881286621 0.7700070142745972 -0.44060400128364563
          -0.2102549970149994 -0.8433510065078735 -0.49452200531959534 0.205717995762825 -0.9570680260658264 -0.20420899987220764
          -0.431443989276886 -0.6402390003204346 -0.6355699896812439 0.010015999898314476 -0.9736589789390564 -0.22779099643230438
          -0.49556300044059753 -0.5616899728775024 -0.6625109910964966 -0.6171550154685974 -0.7208999991416931 0.31531399488449097
          0.017796000465750694 -0.2099660038948059 0.9775469899177551 0.38016000390052795 -0.05840599909424782 0.9230750203132629
          0.19399100542068481 0.03424600139260292 0.9804059863090515 -0.7676180005073547 0.046268999576568604 0.6392359733581543
          0.19360600411891937 -0.0776050016283989 0.9780049920082092 -0.051639001816511154 0.2616879940032959 0.9637699723243713
          -0.9785670042037964 -0.050119999796152115 -0.19973500072956085 -0.6371899843215942 0.2544170022010803 0.7275030016899109
          -0.9355279803276062 0.34556901454925537 0.07328400015830994 -0.9278579950332642 0.102292999625206 -0.3586310148239136
          -0.14326000213623047 -0.9796249866485596 -0.14075499773025513 -0.6218929886817932 -0.676859974861145 -0.3938409984111786
          -0.7373819947242737 -0.5318549871444702 -0.41641101241111755 -0.8879950046539307 -0.3987570106983185 -0.22903500497341156
          <InformationKey name="L2_NORM_RANGE" location="vtkDataArray" length="2">
            <Value index="0">
              0.99999937035
            </Value>
            <Value index="1">
              1.000000779
            </Value>
          </InformationKey>
        </DataArray>
      </PointData>
      <CellData>
      </CellData>
      <Points>
        <DataArray type="Float32" Name="Points" NumberOfComponents="3" format="ascii" RangeMin="0.11207270386872847" RangeMax="0.18053675893550286">
          0.1621749997138977 0.0033499998971819878 -0.0003440000000409782 0.16236799955368042 0.00356299988925457 0.0005249999812804163
          0.16900299489498138 -0.005142000038176775 -0.0010870000114664435 0.15954099595546722 0.005028999876230955 -0.0003760000108741224
          0.15640400350093842 0.007590999826788902 0.0023219999857246876 0.17218199372291565 -0.0020359999034553766 -0.005412000231444836
          0.17037400603294373 0.0008960000122897327 -0.003971000202000141 0.17207199335098267 -0.00469700014218688 -0.003790999995544553
          0.16745099425315857 0.0029329999815672636 -0.0047690002247691154 0.16225400567054749 0.005198999773710966 -0.0013379999436438084
          0.1695449948310852 -0.002939000027254224 0.0014590000500902534 0.1708260029554367 0.006998000200837851 0.003693999955430627
          0.17053699493408203 -0.0038920000661164522 0.002303000073879957 0.174235999584198 -0.005946999881416559 -0.0011350000277161598
          0.1732490062713623 -0.005166999995708466 -0.0037090000696480274 0.1721539944410324 -0.005193999968469143 -0.0005869999877177179
          0.15221799910068512 0.014611000195145607 -0.0005660000024363399 0.1390949934720993 0.014758000150322914 0.00108299998100847
          0.13212299346923828 0.017558999359607697 0.0054870001040399075 0.13933199644088745 0.01859699934720993 0.006570000201463699
          0.17681799829006195 -0.002213000087067485 -0.005555000156164169 0.17816400527954102 0.0026549999602138996 -0.0045819999650120735
          0.16830599308013916 0.005547999870032072 -0.005090999882668257 0.1696159988641739 0.007424999959766865 -0.00406799977645278
          0.16399599611759186 0.007720000110566616 -0.0025579999200999737 0.15394900739192963 0.01676500029861927 0.001117000007070601
          0.16837100684642792 0.009941999800503254 0.0015589999966323376 0.17256399989128113 0.007910000160336494 0.0030799999367445707
          0.17866599559783936 0.005146999843418598 0.0012179999612271786 0.17706799507141113 -0.002222999930381775 0.002964999992400408
          0.1752520054578781 -0.004385000094771385 0.002877000020816922 0.15004000067710876 0.01738099940121174 0.005293000023812056
          0.1757570058107376 -0.00532800005748868 0.0015930000226944685 0.1772170066833496 -0.004097000230103731 0.001978999935090542
          0.1645050048828125 0.00864499993622303 -0.0021840000990778208 0.16396699845790863 0.011939000338315964 0.00043799998820759356
          0.138387992978096 0.018323000520467758 0.0004250000056345016 0.13660599291324615 0.02492699958384037 0.0023350000847131014
          0.12771600484848022 0.017071999609470367 0.001765000051818788 0.13450099527835846 0.021720999851822853 0.007864000275731087
          0.11963299661874771 0.020092999562621117 0.010215999558568 0.12930800020694733 0.019386999309062958 0.008364999666810036
          0.13523100316524506 0.02426999993622303 0.007081000134348869 0.17979800701141357 -0.0003100000030826777 -0.00367900007404387
          0.17982199788093567 0.0032220000866800547 -0.0015140000032261014 0.17737099528312683 0.005975000094622374 -0.0008379999781027436
          0.18021200597286224 0.00004400000034365803 0.0010379999876022339 0.1203169971704483 0.03363800048828125 0.005688999779522419
          0.1184139996767044 0.0334010012447834 0.0026340000331401825 0.12200000137090683 0.025860000401735306 -0.0016670000040903687
          0.11862999945878983 0.019809000194072723 0.005849000066518784 0.1312289983034134 0.025282999500632286 0.008311999961733818
          0.1128230020403862 0.019598999992012978 0.010737000033259392 0.11416099965572357 0.020912999287247658 0.011672000400722027
          0.12171799689531326 0.024252999573946 0.011145000346004963 0.12431299686431885 0.025537999346852303 0.010906999930739403
          0.18053099513053894 0.000582000007852912 -0.0013200000394135714 0.11879199743270874 0.032304998487234116 0.011270999908447266
          0.1122170016169548 0.03489400073885918 0.010804999619722366 0.11271300166845322 0.03518199920654297 0.006268000230193138
          0.11265499889850616 0.028875000774860382 -0.0025059999898076057 0.11165300011634827 0.034306999295949936 0.0010920000495389104
          0.11672999709844589 0.02237600088119507 0.003969999961555004 0.11354999989271164 0.02225399948656559 0.005113000050187111
          0.11355800181627274 0.023097999393939972 0.002845000009983778 0.11228500306606293 0.021462999284267426 0.0051299999468028545
          0.11061199754476547 0.0267730001360178 0.0003459999861661345 0.10965599864721298 0.021321000531315804 0.01028599962592125
          0.12120600044727325 0.025053000077605247 0.01116000022739172 0.11997900158166885 0.027860000729560852 0.012357000261545181
          0.11948399990797043 0.028503000736236572 0.012609000317752361 0.11103899776935577 0.028857000172138214 0.01118400041013956
          0.12236200273036957 0.025661999359726906 0.011478000320494175 0.11406199634075165 0.03220900148153305 0.012834999710321426
          0.11026400327682495 0.028276000171899796 0.00012599999899975955 0.11184199899435043 0.032919999212026596 0.011951000429689884
          0.11187099665403366 0.033966001123189926 0.0068259998224675655 0.1100120022892952 0.029817000031471252 -0.0006000000284984708
          0.111626997590065 0.021529000252485275 0.007013999857008457 0.11183299869298935 0.021562999114394188 0.005543999839574099
          0.11001099646091461 0.024330999702215195 0.0035039999056607485 0.10945399850606918 0.022633999586105347 0.00823500007390976
          <InformationKey name="L2_NORM_RANGE" location="vtkDataArray" length="2">
            <Value index="0">
              0.11207270387
            </Value>
            <Value index="1">
              0.18053675894
            </Value>
          </InformationKey>
        </DataArray>
      </Points>
      <Verts>
        <DataArray type="Int64" Name="connectivity" format="ascii" RangeMin="1e+299" RangeMax="-1e+299">
        </DataArray>
        <DataArray type="Int64" Name="offsets" format="ascii" RangeMin="1e+299" RangeMax="-1e+299">
        </DataArray>
      </Verts>
      <Lines>
        <DataArray type="Int64" Name="connectivity" format="ascii" RangeMin="1e+299" RangeMax="-1e+299">
        </DataArray>
        <DataArray type="Int64" Name="offsets" format="ascii" RangeMin="1e+299" RangeMax="-1e+299">
        </DataArray>
      </Lines>
      <Strips>
        <DataArray type="Int64" Name="connectivity" format="ascii" RangeMin="1e+299" RangeMax="-1e+299">
        </DataArray>
        <DataArray type="Int64" Name="offsets" format="ascii" RangeMin="1e+299" RangeMax="-1e+299">
        </DataArray>
      </Strips>
      <Polys>
        <DataArray type="Int32" Name="connectivity" format="ascii" RangeMin="0" RangeMax="81">
          2 1 0 0 4 3
          6 5 0 4 0 1
          5 7 0 8 6 0
          9 8 0 0 3 9
          7 2 0 2 10 1
          1 11 4 1 12 11
          12 1 10 2 14 13
          15 10 2 2 13 15
          2 7 14 3 16 9
          3 18 17 18 3 4
          16 3 17 4 19 18
          19 4 11 6 20 5
          5 20 7 6 21 20
          6 8 22 22 23 6
          6 23 21 14 7 20
          22 8 9 16 24 9
          24 22 9 15 12 10
          11 26 25 26 11 27
          11 29 28 11 30 29
          27 11 28 11 12 30
          11 25 31 19 11 31
          15 30 12 13 32 15
          14 20 13 33 32 13
          33 13 20 15 32 30
          16 35 34 16 25 35
          34 24 16 16 17 36
          36 37 16 16 37 25
          38 17 18 36 17 38
          19 39 18 40 38 18
          39 41 18 40 18 41
          19 42 39 42 19 31
          43 20 21 33 20 43
          44 43 21 45 44 21
          23 45 21 34 35 22
          24 34 22 23 22 35
          35 26 23 23 26 45
          37 31 25 26 35 25
          27 45 26 28 45 27
          44 28 46 45 28 44
          46 28 29 33 46 29
          30 33 29 30 32 33
          37 47 31 42 31 47
          46 33 43 36 49 48
          37 36 48 49 36 38
          37 48 47 38 40 50
          50 49 38 42 51 39
          41 39 51 40 52 50
          40 53 52 54 53 40
          54 40 55 41 55 40
          55 41 51 47 51 42
          43 44 56 56 46 43
          56 44 46 57 51 47
          59 58 47 57 47 58
          59 47 48 60 48 49
          59 48 61 60 61 48
          63 49 62 65 64 49
          63 65 49 66 49 64
          66 60 49 50 62 49
          50 52 62 51 57 55
          67 52 53 52 67 62
          68 53 54 69 53 68
          53 69 70 70 71 53
          71 67 53 68 54 72
          54 55 72 57 72 55
          57 73 70 70 69 57
          69 72 57 73 57 58
          58 74 71 75 58 71
          76 74 58 73 58 75
          59 76 58 61 76 59
          77 60 74 77 61 60
          74 60 66 77 76 61
          67 78 62 63 62 78
          63 78 65 65 79 64
          64 80 66 64 81 80
          79 81 64 79 65 78
          74 66 80 67 81 78
          81 67 71 68 72 69
          70 73 71 71 74 81
          71 73 75 80 81 74
          76 77 74 81 79 78
        </DataArray>
        <DataArray type="Int32" Name="offsets" format="ascii" RangeMin="3" RangeMax="480">
          3 6 9 12 15 18
          21 24 27 30 33 36
          39 42 45 48 51 54
          57 60 63 66 69 72
          75 78 81 84 87 90
          93 96 99 102 105 108
          111 114 117 120 123 126
          129 132 135 138 141 144
          147 150 153 156 159 162
          165 168 171 174 177 180
          183 186 189 192 195 198
          201 204 207 210 213 216
          219 222 225 228 231 234
          237 240 243 246 249 252
          255 258 261 264 267 270
          273 276 279 282 285 288
          291 294 297 300 303 306
          309 312 315 318 321 324
          327 330 333 336 339 342
          345 348 351 354 357 360
          363 366 369 372 375 378
          381 384 387 390 393 396
          399 402 405 408 411 414
          417 420 423 426 429 432
          435 438 441 444 447 450
          453 456 459 462 465 468
          471 474 477 480
        </DataArray>
      </Polys>
    </Piece>
  </PolyData>
</VTKFile>
