<?xml version="1.0"?>
<VTKFile type="PolyData" version="0.1" byte_order="LittleEndian" header_type="UInt32" compressor="vtkZLibDataCompressor">
  <PolyData>
    <Piece NumberOfPoints="69" NumberOfVerts="0" NumberOfLines="0" NumberOfStrips="0" NumberOfPolys="134">
      <PointData Normals="Normals">
        <DataArray type="Float32" Name="Normals" NumberOfComponents="3" format="ascii" RangeMin="0.9999995066498562" RangeMax="1.00000065205334">
          0.1031000018119812 0.15309500694274902 -0.9828190207481384 -0.5700240135192871 -0.33978700637817383 -0.7480760216712952
          -0.2508060038089752 -0.4588620066642761 -0.8523740172386169 0.2599729895591736 0.6429809927940369 -0.7204089760780334
          0.1437090039253235 0.1808999925851822 -0.9729459881782532 0.4435659945011139 0.6279060244560242 -0.6395180225372314
          -0.0802680030465126 -0.004387000110000372 -0.9967640042304993 0.49133700132369995 0.4939900040626526 -0.7173290252685547
          -0.6951239705085754 -0.6104390025138855 -0.37969401478767395 -0.6581130027770996 -0.7300419807434082 0.1841920018196106
          -0.7348620295524597 -0.6300380229949951 0.2510569989681244 -0.6430709958076477 -0.5168269872665405 -0.5651100277900696
          -0.43176499009132385 -0.8895519971847534 0.14925499260425568 0.04385099932551384 -0.23547300696372986 -0.970890998840332
          0.37069499492645264 0.6683850288391113 -0.6448609828948975 0.5258839726448059 0.8397939801216125 -0.13488000631332397
          0.45898398756980896 0.039294999092817307 -0.8875749707221985 0.32511499524116516 -0.2805190086364746 -0.9031109809875488
          -0.17418299615383148 -0.5602520108222961 -0.8098019957542419 0.4642699956893921 0.86490398645401 0.19077399373054504
          0.6831719875335693 0.6077229976654053 -0.4049060046672821 -0.12891699373722076 -0.9866639971733093 -0.09937100112438202
          -0.22918100655078888 -0.22116899490356445 0.947924017906189 -0.3472909927368164 -0.5918239951133728 0.7274159789085388
          -0.42649000883102417 -0.27167800068855286 0.8627269864082336 0.03051700070500374 -0.7611879706382751 0.6478130221366882
          -0.29607900977134705 0.23698300123214722 0.9252979755401611 -0.2823440134525299 -0.13267399370670319 0.9500939846038818
          -0.24095000326633453 -0.9257339835166931 0.2914789915084839 -0.1989089995622635 -0.7092610001564026 -0.6763020157814026
          0.2322860062122345 0.638733983039856 0.7335270047187805 0.009793000295758247 -0.4299429953098297 -0.9028030037879944
          0.26642999053001404 0.3025059998035431 -0.9151530265808105 0.3073529899120331 0.8942109942436218 0.3254539966583252
          0.4035339951515198 0.822816014289856 -0.4001680016517639 0.2883630096912384 0.7474820017814636 0.5984290242195129
          0.7738050222396851 -0.5261200070381165 -0.35273799300193787 0.9455310106277466 -0.1637759953737259 -0.2813340127468109
          0.3781589865684509 -0.8008170127868652 -0.4644230008125305 0.19009700417518616 0.40908101201057434 0.8924769759178162
          0.4970160126686096 0.7816849946975708 0.3767539858818054 0.9225729703903198 0.10180900245904922 0.37214699387550354
          0.4984920024871826 -0.820455014705658 0.27992698550224304 0.5207610130310059 -0.2208479940891266 0.82464200258255
          0.2970620095729828 0.40054699778556824 0.8667849898338318 0.34950798749923706 -0.5947700142860413 0.7239429950714111
          0.036428000777959824 0.3886210024356842 0.9206770062446594 -0.21124599874019623 -0.8738120198249817 0.4379819929599762
          0.037400998175144196 -0.8064749836921692 -0.5900840163230896 -0.15887700021266937 -0.16624599695205688 0.9732009768486023
          0.33116400241851807 0.9177060127258301 0.21942099928855896 0.16916699707508087 0.01408699993044138 -0.9854869842529297
          0.2148759961128235 0.6486430168151855 -0.7301309704780579 0.793300986289978 -0.5614380240440369 0.23549999296665192
          -0.16028200089931488 -0.497530996799469 -0.8525099754333496 -0.7478569746017456 -0.6622099876403809 0.04676799848675728
          -0.8490189909934998 -0.41493499279022217 0.32710200548171997 -0.18132199347019196 0.48855501413345337 0.8534849882125854
          -0.8465330004692078 0.34157198667526245 0.4083020091056824 -0.9033390283584595 -0.050186000764369965 0.4259819984436035
          0.02161400020122528 0.8439279794692993 -0.5360199809074402 -0.1472959965467453 0.9760890007019043 -0.15986000001430511
          -0.6585109829902649 0.7421389818191528 0.12487299740314484 -0.04243599995970726 -0.1581840068101883 -0.9864969849586487
          -0.13388800621032715 -0.11206500232219696 -0.9846400022506714 -0.08074399828910828 0.41078999638557434 -0.9081479907035828
          -0.5939409732818604 -0.04912000149488449 -0.8030080199241638 -0.791018009185791 0.32460498809814453 -0.518576979637146
          -0.43030598759651184 0.7359840273857117 -0.5226519703865051
          <InformationKey name="L2_NORM_RANGE" location="vtkDataArray" length="2">
            <Value index="0">
              0.99999950665
            </Value>
            <Value index="1">
              1.0000006521
            </Value>
          </InformationKey>
        </DataArray>
      </PointData>
      <CellData>
      </CellData>
      <Points>
        <DataArray type="Float32" Name="Points" NumberOfComponents="3" format="ascii" RangeMin="0.10281808660223782" RangeMax="0.16509122645985053">
          0.1584250032901764 0.005231000017374754 0.011870999820530415 0.1546510010957718 -0.000003000000106112566 0.013154000043869019
          0.15259000658988953 0.001829999964684248 0.013182000257074833 0.15675200521945953 0.00688599981367588 0.012559999711811543
          0.1549540013074875 0.007189000025391579 0.01216300018131733 0.15952399373054504 0.006221000105142593 0.01252800039947033
          0.15937800705432892 -0.0030060000717639923 0.011467999778687954 0.16141599416732788 0.004333999939262867 0.013321000151336193
          0.15702399611473083 -0.00406099995598197 0.012914000079035759 0.1572979986667633 -0.006345000118017197 0.014643999747931957
          0.1521189957857132 0.0012629999546334147 0.014426000416278839 0.1576559990644455 -0.004887999966740608 0.012273999862372875
          0.1449050009250641 0.005127999931573868 0.013384999707341194 0.14491599798202515 0.008628999814391136 0.010622000321745872
          0.14811000227928162 0.01107999961823225 0.011819999665021896 0.15970300137996674 0.0064409999176859856 0.013763999566435814
          0.1620199978351593 -0.0010349999647587538 0.011783000081777573 0.16105200350284576 -0.003938000183552504 0.01170899998396635
          0.15852099657058716 -0.005109000019729137 0.011973000131547451 0.16033700108528137 0.0055680000223219395 0.015519999898970127
          0.16336099803447723 0.004178999923169613 0.013999000191688538 0.15935200452804565 -0.006523999851197004 0.014551999978721142
          0.15856599807739258 -0.0028019999153912067 0.018021000549197197 0.15837900340557098 -0.005280000157654285 0.016448000445961952
          0.15707899630069733 -0.0002770000137388706 0.017242999747395515 0.15966099500656128 -0.005650999955832958 0.01635099947452545
          0.15498599410057068 0.005841999780386686 0.016735000535845757 0.15539099276065826 0.0014280000468716025 0.01768999919295311
          0.1263660043478012 0.012171999551355839 0.012512000277638435 0.1360889971256256 0.009101999923586845 0.01075700018554926
          0.1350719928741455 0.017261000350117683 0.01260400004684925 0.1303980052471161 0.013466999866068363 0.008837999776005745
          0.13165700435638428 0.017627999186515808 0.008848000317811966 0.15347599983215332 0.009390000253915787 0.014495999552309513
          0.1220339983701706 0.02314000017940998 0.009045000188052654 0.15708400309085846 0.007267000153660774 0.016210999339818954
          0.16151399910449982 -0.005247000139206648 0.012759000062942505 0.16447199881076813 -0.00007599999662488699 0.014152999967336655
          0.16078400611877441 -0.005878999829292297 0.01257800031453371 0.159510999917984 0.00419300002977252 0.017162000760436058
          0.16243399679660797 0.004900000058114529 0.015521000139415264 0.16424599289894104 0.0005869999877177179 0.016674000769853592
          0.1607690006494522 -0.005626999773085117 0.0158270001411438 0.16319799423217773 -0.0015269999857991934 0.0176829993724823
          0.16187499463558197 0.004058000165969133 0.017280999571084976 0.16140399873256683 -0.004412999842315912 0.017062999308109283
          0.1573449969291687 0.005692000035196543 0.01771700009703636 0.10968700051307678 0.015189999714493752 0.008376999758183956
          0.11077500134706497 0.015124999918043613 0.005584000144153833 0.10357700288295746 0.02352299913764 0.014940000139176846
          0.11154700070619583 0.028095999732613564 0.009681000374257565 0.11077400296926498 0.021825000643730164 0.004738000221550465
          0.10502199828624725 0.028421999886631966 0.005456000100821257 0.16228599846363068 -0.004157999996095896 0.01632699929177761
          0.10373599827289581 0.014756999909877777 0.004654000047594309 0.1014069989323616 0.016124000772833824 0.005309999920427799
          0.10046800225973129 0.0216669999063015 0.012267000041902065 0.10123299807310104 0.026575999334454536 0.014182999730110168
          0.10056900233030319 0.025414999574422836 0.014037000015377998 0.09991700202226639 0.024421000853180885 0.013411000370979309
          0.10460299998521805 0.028939999639987946 0.006178999785333872 0.10374400019645691 0.029364999383687973 0.007195999845862389
          0.10243400186300278 0.02855999954044819 0.01252800039947033 0.10405399650335312 0.019305000081658363 0.004567999858409166
          0.10392799973487854 0.020514000207185745 0.004182000178843737 0.10425499826669693 0.026559000834822655 0.004251000005751848
          0.10126200318336487 0.01755700074136257 0.00533400010317564 0.10286399722099304 0.027060000225901604 0.004825000185519457
          0.10350699722766876 0.028836999088525772 0.006066999863833189
          <InformationKey name="L2_NORM_RANGE" location="vtkDataArray" length="2">
            <Value index="0">
              0.1028180866
            </Value>
            <Value index="1">
              0.16509122646
            </Value>
          </InformationKey>
        </DataArray>
      </Points>
      <Verts>
        <DataArray type="Int64" Name="connectivity" format="ascii" RangeMin="1e+299" RangeMax="-1e+299">
        </DataArray>
        <DataArray type="Int64" Name="offsets" format="ascii" RangeMin="1e+299" RangeMax="-1e+299">
        </DataArray>
      </Verts>
      <Lines>
        <DataArray type="Int64" Name="connectivity" format="ascii" RangeMin="1e+299" RangeMax="-1e+299">
        </DataArray>
        <DataArray type="Int64" Name="offsets" format="ascii" RangeMin="1e+299" RangeMax="-1e+299">
        </DataArray>
      </Lines>
      <Strips>
        <DataArray type="Int64" Name="connectivity" format="ascii" RangeMin="1e+299" RangeMax="-1e+299">
        </DataArray>
        <DataArray type="Int64" Name="offsets" format="ascii" RangeMin="1e+299" RangeMax="-1e+299">
        </DataArray>
      </Strips>
      <Polys>
        <DataArray type="Int32" Name="connectivity" format="ascii" RangeMin="0" RangeMax="68">
          0 1 2 3 0 4
          3 5 0 6 0 7
          0 2 4 0 6 1
          7 0 5 1 8 9
          1 10 2 10 1 9
          8 1 11 11 1 6
          2 10 12 12 13 2
          4 2 13 4 14 3
          14 15 3 3 15 5
          14 4 13 5 15 7
          7 16 6 16 17 6
          18 11 6 17 18 6
          15 19 7 20 7 19
          20 16 7 9 8 21
          8 11 21 22 9 23
          24 9 22 24 10 9
          23 9 25 25 9 21
          10 26 12 10 24 27
          10 27 26 11 18 21
          28 29 12 29 13 12
          12 26 30 30 28 12
          13 29 31 13 32 14
          13 31 32 14 33 15
          34 30 14 30 33 14
          14 32 34 33 35 15
          15 35 19 36 16 37
          16 20 37 17 16 36
          38 18 17 17 36 38
          21 18 38 19 35 39
          19 39 40 20 19 40
          40 41 20 37 20 41
          38 42 21 42 25 21
          43 44 22 39 24 22
          43 22 45 22 44 39
          22 23 25 45 22 25
          24 39 27 42 45 25
          33 26 35 26 33 30
          46 26 27 46 35 26
          39 46 27 47 48 28
          31 29 28 48 31 28
          28 30 49 47 28 49
          50 49 30 50 30 34
          31 48 51 51 32 31
          32 52 34 51 52 32
          50 34 52 35 46 39
          36 42 38 42 36 53
          53 36 37 37 41 53
          44 40 39 41 40 44
          44 43 41 41 43 53
          45 42 53 53 43 45
          48 47 54 47 55 54
          49 56 47 47 56 55
          54 51 48 49 50 57
          49 58 59 58 49 57
          56 49 59 60 50 52
          50 60 61 62 50 61
          62 57 50 51 63 64
          54 63 51 51 65 52
          64 65 51 60 52 65
          54 66 63 66 54 55
          56 66 55 56 67 66
          67 56 59 57 62 58
          58 67 59 62 67 58
          60 65 68 60 68 61
          61 68 62 62 68 67
          64 63 66 65 64 67
          64 66 67 65 67 68
        </DataArray>
        <DataArray type="Int32" Name="offsets" format="ascii" RangeMin="3" RangeMax="402">
          3 6 9 12 15 18
          21 24 27 30 33 36
          39 42 45 48 51 54
          57 60 63 66 69 72
          75 78 81 84 87 90
          93 96 99 102 105 108
          111 114 117 120 123 126
          129 132 135 138 141 144
          147 150 153 156 159 162
          165 168 171 174 177 180
          183 186 189 192 195 198
          201 204 207 210 213 216
          219 222 225 228 231 234
          237 240 243 246 249 252
          255 258 261 264 267 270
          273 276 279 282 285 288
          291 294 297 300 303 306
          309 312 315 318 321 324
          327 330 333 336 339 342
          345 348 351 354 357 360
          363 366 369 372 375 378
          381 384 387 390 393 396
          399 402
        </DataArray>
      </Polys>
    </Piece>
  </PolyData>
</VTKFile>
