<?xml version="1.0"?>
<VTKFile type="PolyData" version="0.1" byte_order="LittleEndian" header_type="UInt32" compressor="vtkZLibDataCompressor">
  <PolyData>
    <Piece NumberOfPoints="296" NumberOfVerts="0" NumberOfLines="0" NumberOfStrips="0" NumberOfPolys="588">
      <PointData Normals="Normals">
        <DataArray type="Float32" Name="Normals" NumberOfComponents="3" format="ascii" RangeMin="0.9999993153992689" RangeMax="1.0000005967243197">
          0.4803059995174408 0.6221809983253479 0.6182209849357605 -0.32779398560523987 0.43955400586128235 0.8362669944763184
          -0.05688200145959854 0.3703390061855316 0.9271529912948608 0.4824270009994507 0.5592849850654602 0.6741399765014648
          0.35883599519729614 0.7691019773483276 0.528885006904602 -0.1949480026960373 0.5877739787101746 0.7851859927177429
          0.22446699440479279 0.12453799694776535 0.9664909839630127 0.758808970451355 0.5837309956550598 0.288906991481781
          0.5489469766616821 0.7415580153465271 0.38568100333213806 0.23824700713157654 0.75450199842453 0.6115270256996155
          -0.39348700642585754 0.33775898814201355 0.8550360202789307 -0.6802819967269897 0.3839859962463379 0.6243159770965576
          0.567035973072052 0.4831329882144928 0.667123019695282 0.5769029855728149 -0.05043800175189972 0.8152539730072021
          0.18768300116062164 0.8150780200958252 0.5481089949607849 0.1363389939069748 0.9240149855613708 0.3572230041027069
          0.7167220115661621 0.6649699807167053 0.21005700528621674 -0.37445399165153503 0.5101929903030396 0.7742660045623779
          -0.2362229973077774 -0.1739729940891266 0.9559980034828186 0.20685400068759918 -0.47964999079704285 0.8527299761772156
          -0.22989900410175323 0.1789270043373108 0.9566249847412109 0.7443619966506958 0.5677449703216553 0.3515549898147583
          0.4941689968109131 0.6677209734916687 0.5567280054092407 -0.5716699957847595 0.30948299169540405 0.7598779797554016
          -0.7646350264549255 0.396916002035141 0.5077300071716309 -0.7453320026397705 0.4763279855251312 0.4664680063724518
          -0.8181509971618652 0.14142300188541412 0.5573400259017944 0.7806479930877686 -0.022884000092744827 0.6245520114898682
          0.6945059895515442 0.559785008430481 0.4519979953765869 0.9943109750747681 0.0661659985780716 0.08347400277853012
          0.8985170125961304 -0.3332119882106781 0.28571999073028564 0.6279119849205017 -0.43878498673439026 0.6428020000457764
          0.05240900069475174 0.9862769842147827 0.15656200051307678 0.5718520283699036 0.8185939788818359 0.053745999932289124
          0.16951799392700195 0.9237200021743774 -0.34351998567581177 0.5826039910316467 0.5971530079841614 0.5513449907302856
          0.6487100124359131 0.6633480191230774 -0.3730210065841675 0.7019169926643372 0.603797972202301 0.3778110146522522
          0.8922250270843506 0.45034098625183105 -0.03358300030231476 0.07446300238370895 0.5311030149459839 0.8440290093421936
          -0.3964720070362091 0.40626999735832214 0.8232589960098267 -0.9105799794197083 -0.044842999428510666 0.4108929932117462
          -0.6581000089645386 -0.07706999778747559 0.7489759922027588 -0.27066799998283386 -0.4190239906311035 0.8666939735412598
          0.011882999911904335 -0.705843985080719 0.7082679867744446 0.5269950032234192 -0.6953449845314026 0.48864200711250305
          -0.8619199991226196 0.2223690003156662 0.4556809961795807 -0.9662370085716248 -0.15654300153255463 0.2046480029821396
          -0.894225001335144 -0.047276999801397324 0.44511398673057556 -0.8846870064735413 -0.1022609993815422 0.45483100414276123
          -0.9274539947509766 0.1064779981970787 0.358458012342453 0.9663580060005188 0.23327399790287018 -0.10833200067281723
          0.8185989856719971 -0.45966801047325134 -0.34438300132751465 0.6670470237731934 -0.061059001833200455 -0.7425100207328796
          0.8562620282173157 -0.5085819959640503 -0.09033600240945816 0.7686439752578735 -0.5794990062713623 0.27086499333381653
          0.06919699907302856 0.8097320199012756 -0.582705020904541 0.5736579895019531 0.40377599000930786 -0.7126579880714417
          0.5966050028800964 0.45621800422668457 -0.6602479815483093 -0.010251999832689762 0.5950620174407959 -0.8036149740219116
          0.36260101199150085 0.6366119980812073 0.6806210279464722 0.6899930238723755 0.6237369775772095 0.3672359883785248
          0.8633549809455872 0.22724300622940063 -0.450533002614975 0.8078479766845703 -0.06369800120592117 -0.5859389901161194
          0.6589030027389526 0.5300909876823425 0.5337139964103699 0.9805489778518677 0.029234999790787697 -0.19408300518989563
          0.8867670297622681 0.389849990606308 0.24831800162792206 0.015542999841272831 0.5393329858779907 0.8419489860534668
          -0.9070190191268921 -0.26094600558280945 0.33048999309539795 -0.5416520237922668 0.2385610044002533 0.8060410022735596
          -0.6356300115585327 -0.6237879991531372 -0.45482099056243896 -0.6735309958457947 -0.49552199244499207 -0.5484660267829895
          -0.8757150173187256 0.025134000927209854 0.48217299580574036 -0.5004879832267761 -0.5231459736824036 0.6898040175437927
          -0.17868700623512268 -0.8512939810752869 0.49332600831985474 0.17908500134944916 -0.9234210252761841 0.33944299817085266
          0.582414984703064 -0.7915400266647339 0.18508799374103546 -0.9163510203361511 -0.24575300514698029 -0.3160809874534607
          -0.9821299910545349 -0.15871800482273102 0.10113599896430969 -0.9581080079078674 -0.022871000692248344 0.28549298644065857
          -0.9295880198478699 -0.3608349859714508 0.07526499778032303 -0.7626129984855652 -0.602770984172821 0.2347089946269989
          -0.7911880016326904 -0.4667600095272064 0.3951660096645355 -0.9861540198326111 -0.09327500313520432 0.13711600005626678
          -0.9258130192756653 -0.09532900154590607 0.36576300859451294 0.8056430220603943 -0.4890410006046295 -0.33433300256729126
          0.7364640235900879 -0.24369600415229797 -0.6310570240020752 0.8221709728240967 -0.5227410197257996 -0.2253360003232956
          0.4087429940700531 0.14569500088691711 -0.9009450078010559 0.09419400244951248 0.2855130136013031 -0.9537349939346313
          0.7749689817428589 -0.6266499757766724 -0.08205199986696243 0.22859999537467957 0.16994599997997284 -0.9585719704627991
          0.6760720014572144 -0.08488500118255615 -0.7319300174713135 0.37928900122642517 -0.2586219906806946 -0.8884000182151794
          0.23509199917316437 -0.611037015914917 -0.755886971950531 0.7629680037498474 -0.38088399171829224 -0.5223090052604675
          0.464464008808136 0.49440300464630127 0.7347379922866821 0.9892740249633789 -0.1392109990119934 -0.044248998165130615
          0.8436599969863892 0.2526339888572693 0.47372299432754517 0.22549700736999512 0.5818889737129211 0.7813810110092163
          -0.3234359920024872 0.42091700434684753 0.8474770188331604 -0.791130006313324 -0.20787200331687927 0.5752410292625427
          -0.9109529852867126 -0.3778479993343353 0.1655150055885315 -0.7491819858551025 -0.6216959953308105 -0.22851599752902985
          -0.44569000601768494 -0.6590560078620911 -0.6058099865913391 -0.7327119708061218 0.032710000872612 0.679751992225647
          -0.7463099956512451 0.21873599290847778 0.6286299824714661 -0.47257599234580994 -0.6779130101203918 -0.5631219744682312
          -0.3877750039100647 -0.6264899969100952 -0.6761220097541809 -0.47696399688720703 -0.3434230089187622 -0.8090530037879944
          0.003469000104814768 -0.41272300481796265 -0.9108499884605408 0.010104999877512455 -0.12157800048589706 -0.9925299882888794
          -0.8781890273094177 -0.3310549855232239 0.3452329933643341 -0.30006998777389526 -0.9088490009307861 0.28974300622940063
          -0.5090780258178711 -0.7673670053482056 0.3898569941520691 -0.2038010060787201 -0.9389370083808899 0.27724000811576843
          0.3782089948654175 -0.9239190220832825 0.057714998722076416 -0.03589500114321709 -0.9732720255851746 0.22683200240135193
          0.6800150275230408 -0.7143020033836365 -0.16538700461387634 0.6611959934234619 -0.7483500242233276 -0.05283999815583229
          -0.9037399888038635 -0.1646050065755844 -0.3951700031757355 -0.9967700242996216 -0.0777050033211708 -0.020305000245571136
          -0.6487540006637573 -0.42675501108169556 -0.6300789713859558 -0.525331974029541 -0.8367829918861389 -0.154339998960495
          -0.39564400911331177 -0.9182980060577393 0.013988000340759754 -0.5444579720497131 -0.8216590285301208 0.16864700615406036
          -0.7006790041923523 -0.7046409845352173 0.11193999648094177 -0.8599029779434204 -0.4577920138835907 0.2258179932832718
          0.8713939785957336 -0.44690200686454773 -0.2023629993200302 0.726502001285553 -0.5288069844245911 -0.43881499767303467
          0.6621729731559753 -0.17948800325393677 -0.727537989616394 0.8415690064430237 -0.5080689787864685 -0.18337899446487427
          0.17751699686050415 0.36493998765945435 -0.9139509797096252 0.0576150007545948 0.4645549952983856 -0.8836680054664612
          0.05607999861240387 0.27261999249458313 -0.9604859948158264 0.09022600203752518 0.24592800438404083 -0.9650800228118896
          0.3461180031299591 0.1807910054922104 -0.9206069707870483 -0.09061499685049057 -0.567035973072052 -0.818693995475769
          0.2610599994659424 -0.5009269714355469 -0.8251789808273315 0.13100400567054749 -0.5485900044441223 -0.825764000415802
          -0.16418500244617462 -0.7792199850082397 -0.6048629879951477 0.34905800223350525 -0.8353840112686157 -0.4246079921722412
          0.6703140139579773 -0.5805190205574036 -0.4622519910335541 0.7561879754066467 0.31995299458503723 0.5707979798316956
          0.958611011505127 -0.28407299518585205 0.01914599910378456 0.6902400255203247 -0.6884369850158691 -0.22276300191879272
          -0.057962000370025635 0.9059609770774841 0.4193739891052246 0.2729400098323822 0.8626070022583008 0.42592599987983704
          0.40028199553489685 0.6570289731025696 0.6388170123100281 0.5382400155067444 0.5857009887695312 0.6060130000114441
          -0.35013899207115173 0.7498700022697449 0.5613359808921814 -0.6205520033836365 0.45296499133110046 0.6401079893112183
          -0.794173002243042 -0.1616010069847107 0.5858110189437866 -0.7577599883079529 -0.48819199204444885 0.43297699093818665
          -0.8050320148468018 -0.457643985748291 0.37747299671173096 -0.7231860160827637 -0.6884840130805969 -0.05469699949026108
          -0.4332610070705414 -0.826885998249054 -0.35853201150894165 -0.037578001618385315 -0.603892982006073 -0.7961789965629578
          -0.9174749851226807 0.07493100315332413 0.3906719982624054 -0.9107679724693298 0.11830399930477142 -0.39560800790786743
          -0.8387179970741272 0.5090320110321045 0.1934880018234253 -0.31452998518943787 -0.41309401392936707 -0.854649007320404
          -0.30760499835014343 -0.2884809970855713 -0.906728982925415 0.0733800008893013 0.44893398880958557 -0.890546977519989
          -0.01583999954164028 0.1490979939699173 -0.9886959791183472 -0.6886929869651794 -0.6993359923362732 0.19139300286769867
          -0.3111239969730377 -0.9223340153694153 0.22913500666618347 -0.25538399815559387 -0.9206870198249817 0.2951509952545166
          -0.124160997569561 -0.9851850271224976 0.11829899996519089 0.07356999814510345 -0.8471450209617615 -0.5262439846992493
          -0.07909099757671356 -0.9650909900665283 -0.24968700110912323 -0.12900300323963165 -0.7775149941444397 -0.6154900193214417
          -0.05142400041222572 -0.4110319912433624 -0.9101690053939819 -0.32029300928115845 -0.8774219751358032 -0.3571310043334961
          -0.39258599281311035 -0.9184619784355164 -0.04800400137901306 -0.5619840025901794 -0.820052981376648 0.10810799896717072
          -0.6355879902839661 -0.6989399790763855 -0.32788899540901184 -0.595022976398468 -0.7838789820671082 -0.17742900550365448
          0.014519999735057354 -0.602213978767395 -0.7982019782066345 0.14377400279045105 0.2597320079803467 -0.9549180269241333
          -0.04437899962067604 0.5623000264167786 -0.8257420063018799 0.05393199995160103 -0.9636319875717163 -0.2617349922657013
          0.5552719831466675 -0.8262550234794617 -0.09474200010299683 0.8505989909172058 0.4626779854297638 0.2498220056295395
          0.7720130085945129 -0.5909309983253479 -0.23408900201320648 0.7610719799995422 -0.3772580027580261 -0.5276790261268616
          0.9627190232276917 -0.11578699946403503 -0.2444700002670288 -0.3087979853153229 0.9491919875144958 -0.06064999848604202
          -0.17829200625419617 0.971979022026062 -0.15319299697875977 0.14238299429416656 0.9842450022697449 0.10482899844646454
          0.3659859895706177 0.8843349814414978 0.2898370027542114 -0.5987290143966675 0.7992680072784424 0.05190499871969223
          -0.8904420137405396 -0.4439310133457184 -0.10019499808549881 -0.5391619801521301 -0.7874810099601746 -0.29862698912620544
          -0.47956201434135437 -0.7833809852600098 -0.3953920006752014 -0.4962739944458008 -0.7612730264663696 -0.41734299063682556
          -0.1990080028772354 -0.8521199822425842 -0.48403200507164 -0.5701929926872253 0.10441800206899643 -0.814848005771637
          -0.6027979850769043 0.5925400257110596 -0.5343509912490845 -0.5996479988098145 -0.21028000116348267 -0.7721430063247681
          -0.5866850018501282 -0.5537530183792114 -0.5908970236778259 -0.4607729911804199 -0.10469499975442886 -0.8813210129737854
          -0.34198999404907227 -0.5382040143013 -0.7703109979629517 -0.2772490084171295 -0.3098829984664917 -0.9094529747962952
          -0.3858399987220764 -0.8943970203399658 0.22623300552368164 -0.5274419784545898 -0.8345329761505127 -0.15924599766731262
          -0.5030919909477234 -0.6819049715995789 -0.5309460163116455 -0.537568986415863 -0.6806470155715942 -0.497734010219574
          -0.20741699635982513 -0.733797013759613 -0.6469320058822632 -0.5849800109863281 -0.7593749761581421 -0.28486400842666626
          -0.5014449954032898 -0.6717100143432617 -0.5453050136566162 -0.19174499809741974 -0.7634770274162292 -0.6167140007019043
          -0.49154898524284363 -0.5740159749984741 -0.6548939943313599 -0.6696320176124573 -0.5412070155143738 -0.5086140036582947
          -0.6129850149154663 -0.6857489943504333 -0.392425000667572 -0.48909100890159607 -0.8681089878082275 -0.0847110003232956
          -0.4935210049152374 -0.6374099850654602 -0.5917310118675232 -0.606311023235321 -0.2917250096797943 -0.7397860288619995
          -0.5779709815979004 -0.28859999775886536 -0.7633209824562073 0.218190997838974 -0.960224986076355 -0.17424499988555908
          0.45494499802589417 -0.7957710027694702 -0.3997170031070709 0.696698009967804 -0.626255989074707 -0.34988000988960266
          0.3482840061187744 0.9369369745254517 -0.029097000136971474 0.763683021068573 0.4043009877204895 -0.5033180117607117
          0.4663119912147522 -0.3423759937286377 -0.8156790137290955 0.6655669808387756 -0.053102001547813416 -0.7444469928741455
          -0.4035390019416809 0.8360199928283691 -0.37178900837898254 -0.18434199690818787 0.7581220269203186 -0.6255149841308594
          -0.01801300048828125 0.9962610006332397 -0.08449199795722961 -0.035464998334646225 0.8208039999008179 -0.5701079964637756
          0.2230360060930252 0.9704089760780334 -0.09253200143575668 0.21026700735092163 0.9775739908218384 -0.011714999563992023
          0.22526000440120697 0.9706209897994995 0.08456999808549881 -0.6237199902534485 -0.4901280105113983 -0.6088910102844238
          -0.6647769808769226 -0.45117199420928955 -0.595412015914917 -0.35281598567962646 -0.3975439965724945 -0.8470410108566284
          -0.2818729877471924 -0.4243699908256531 -0.8604980111122131 -0.09797599911689758 -0.7783060073852539 -0.6201940178871155
          -0.4136990010738373 0.3521389961242676 -0.8395540118217468 -0.2898789942264557 0.4030030071735382 -0.8680779933929443
          -0.2828420102596283 0.6644970178604126 -0.6916970014572144 -0.5434659719467163 -0.3952690064907074 -0.7405449748039246
          -0.5280129909515381 -0.5183820128440857 -0.6726679801940918 -0.6046789884567261 -0.2336840033531189 -0.7614169716835022
          -0.6286749839782715 -0.3113569915294647 -0.7126179933547974 -0.6089649796485901 -0.226174995303154 -0.760267972946167
          -0.6962680220603943 -0.611627995967865 -0.3756619989871979 -0.7123410105705261 -0.40747201442718506 -0.5714349746704102
          0.12584100663661957 -0.5670080184936523 -0.8140429854393005 0.6022300124168396 -0.5366569757461548 -0.5910320281982422
          -0.11066100001335144 0.9660239815711975 -0.23356500267982483 0.23304100334644318 0.968334972858429 -0.08955000340938568
          0.04474100098013878 0.8663079738616943 -0.49750199913978577 0.20217999815940857 0.5562620162963867 -0.8060370087623596
          -0.3701469898223877 0.02859400026500225 -0.9285330176353455 -0.4150319993495941 -0.2298630028963089 -0.8802909851074219
          -0.11075499653816223 -0.40072399377822876 -0.9094799757003784 -0.11678999662399292 0.005007000174373388 -0.9931439757347107
          -0.2864150106906891 -0.079585000872612 -0.9547950029373169 0.5306609869003296 -0.17331700026988983 -0.829675018787384
          0.7213249802589417 -0.03937000036239624 -0.6914770007133484 0.32360100746154785 0.4513170123100281 -0.8316220045089722
          -0.12808099389076233 0.5165860056877136 -0.8466020226478577 0.08526899665594101 0.9405930042266846 -0.32865598797798157
          0.07668100297451019 0.8612890243530273 -0.502295970916748 -0.1821880042552948 0.692205011844635 -0.6983259916305542
          0.1460680067539215 0.9627259969711304 -0.22764800488948822 -0.06498400121927261 0.8609330058097839 -0.5045509934425354
          -0.7394689917564392 -0.2991339862346649 -0.6030799746513367 -0.795225977897644 -0.09616400301456451 -0.5986390113830566
          -0.5259550213813782 -0.3181439936161041 -0.788769006729126 -0.3112559914588928 -0.44688600301742554 -0.8386970162391663
          -0.024272000417113304 -0.469760000705719 -0.8824610114097595 -0.5465999841690063 0.3982279896736145 -0.7366430163383484
          -0.692018985748291 -0.04878700152039528 -0.7202280163764954 -0.5765929818153381 0.44594600796699524 -0.6845970153808594
          -0.475585013628006 0.7738360166549683 -0.4183259904384613 -0.4360879957675934 0.6132829785346985 -0.6585680246353149
          0.09858900308609009 0.9547950029373169 -0.28043898940086365 -0.4175899922847748 0.8550249934196472 -0.3074910044670105
          -0.17056700587272644 0.8134269714355469 -0.5560969710350037 -0.45507800579071045 0.8098419904708862 -0.3702149987220764
          -0.41921699047088623 0.776216983795166 -0.47089698910713196 -0.7238439917564392 0.3004690110683441 -0.6211029887199402
          -0.6282860040664673 0.5826290249824524 -0.5155580043792725 -0.5515869855880737 0.14958800375461578 -0.8205950260162354
          -0.4457649886608124 -0.29368698596954346 -0.8456010222434998 -0.08119499683380127 0.16974900662899017 -0.9821370244026184
          0.21435299515724182 0.343546986579895 -0.9143459796905518 0.005830000154674053 0.7024030089378357 -0.7117549777030945
          -0.41666799783706665 0.6503239870071411 -0.635191023349762 -0.7578999996185303 0.025258999317884445 -0.651881992816925
          -0.575543999671936 -0.1516149938106537 -0.8035929799079895 -0.6127039790153503 0.12548799812793732 -0.7802860140800476
          -0.6503270268440247 0.6380339860916138 -0.41229501366615295 -0.6594600081443787 0.6210219860076904 -0.4236089885234833
          <InformationKey name="L2_NORM_RANGE" location="vtkDataArray" length="2">
            <Value index="0">
              0.9999993154
            </Value>
            <Value index="1">
              1.0000005967
            </Value>
          </InformationKey>
        </DataArray>
      </PointData>
      <CellData>
      </CellData>
      <Points>
        <DataArray type="Float32" Name="Points" NumberOfComponents="3" format="ascii" RangeMin="0.03613784134945058" RangeMax="0.08495586845956915">
          0.01709200069308281 -0.05362600088119507 0.05863599851727486 0.015572999604046345 -0.05345200002193451 0.05887499824166298
          0.016068000346422195 -0.054391998797655106 0.059477999806404114 0.018580999225378036 -0.05482500046491623 0.0585549995303154
          0.017733000218868256 -0.05142499879002571 0.053651001304388046 0.014870000071823597 -0.05067700147628784 0.056703999638557434
          0.017720000818371773 -0.055771999061107635 0.05973299965262413 0.016296999529004097 -0.04961799830198288 0.053279999643564224
          0.015832999721169472 -0.0492670014500618 0.05457000061869621 0.01535400003194809 -0.04976499825716019 0.05575399845838547
          0.015525000169873238 -0.05587000027298927 0.05947300046682358 0.013907999731600285 -0.05592000111937523 0.05829799920320511
          0.020353000611066818 -0.05467800050973892 0.057534001767635345 0.020169999450445175 -0.05629799887537956 0.058115001767873764
          0.020166000351309776 -0.05025700107216835 0.052955999970436096 0.01795399934053421 -0.049835000187158585 0.051398999989032745
          0.016662999987602234 -0.04882900044322014 0.05128199979662895 0.011331000365316868 -0.04753199964761734 0.05292399972677231
          0.014751000329852104 -0.057259999215602875 0.059466999024152756 0.01613200083374977 -0.057941000908613205 0.05922799929976463
          0.015734000131487846 -0.05626099929213524 0.059721000492572784 0.015969999134540558 -0.048496998846530914 0.052090998739004135
          0.015425000339746475 -0.04861700162291527 0.0536470003426075 0.013981999829411507 -0.05647899955511093 0.05897999927401543
          0.012548999860882759 -0.05742799863219261 0.05764999985694885 0.012512999586760998 -0.057172998785972595 0.0570870004594326
          0.010982000268995762 -0.05734400078654289 0.055316001176834106 0.02091900072991848 -0.05596499890089035 0.05735800042748451
          0.022086000069975853 -0.05142800137400627 0.0522489994764328 0.0229909997433424 -0.054023001343011856 0.05315199866890907
          0.02232700027525425 -0.056233000010252 0.05521399900317192 0.02011900022625923 -0.057906001806259155 0.05745900049805641
          0.019985999912023544 -0.04965599998831749 0.05175799876451492 0.021733000874519348 -0.049865998327732086 0.050188999623060226
          0.017704999074339867 -0.049710001796483994 0.04982699826359749 0.014911999925971031 -0.04741299897432327 0.05259700119495392
          0.01665399968624115 -0.04948800057172775 0.04956600069999695 0.01504599954932928 -0.04633999988436699 0.051231998950242996
          0.014891000464558601 -0.04562000185251236 0.04948500171303749 0.012985999695956707 -0.04706700146198273 0.05306300148367882
          0.008906999602913857 -0.03924499824643135 0.04721200093626976 0.00649499986320734 -0.05112899839878082 0.04771000146865845
          0.013166000135242939 -0.05811699852347374 0.05844999849796295 0.01384000014513731 -0.05892299860715866 0.0586559996008873
          0.014245999976992607 -0.06140400096774101 0.056956999003887177 0.018343999981880188 -0.06095600128173828 0.05591199919581413
          0.011129000224173069 -0.05821099877357483 0.056168001145124435 0.0071669998578727245 -0.055257998406887054 0.04949599876999855
          0.008101999759674072 -0.05623200163245201 0.050939999520778656 0.008483000099658966 -0.058921001851558685 0.051784999668598175
          0.010809999890625477 -0.05923200026154518 0.0550060011446476 0.02262900024652481 -0.051479000598192215 0.05118599906563759
          0.021212000399827957 -0.05730700120329857 0.05063899978995323 0.02094000019133091 -0.052090998739004135 0.048253998160362244
          0.02032100036740303 -0.059188999235630035 0.052949998527765274 0.01944899931550026 -0.06028600037097931 0.054708998650312424
          0.019881000742316246 -0.049894001334905624 0.048886001110076904 0.02161099947988987 -0.0504859983921051 0.049049001187086105
          0.016795000061392784 -0.050308000296354294 0.048691000789403915 0.018226999789476395 -0.05071600154042244 0.048523999750614166
          0.013917000032961369 -0.04602000117301941 0.05203599855303764 0.014248000457882881 -0.04518499970436096 0.05056599900126457
          0.014778000302612782 -0.0474339984357357 0.04678099974989891 0.013778000138700008 -0.04637699946761131 0.045010000467300415
          0.009494000114500523 -0.0344570018351078 0.04300199821591377 0.011884000152349472 -0.03816499933600426 0.042155999690294266
          0.011711000464856625 -0.037546999752521515 0.04329000040888786 0.005946999881416559 -0.031153999269008636 0.04149800166487694
          0.002015999983996153 -0.042792998254299164 0.041356999427080154 0.0024419999681413174 -0.03224699944257736 0.04079499840736389
          0.004821000155061483 -0.04784100130200386 0.04338400065898895 0.006446999963372946 -0.05181499943137169 0.045830998569726944
          0.010770999826490879 -0.05971600115299225 0.05542200058698654 0.011881000362336636 -0.06137099862098694 0.05626099929213524
          0.012845000252127647 -0.06215900182723999 0.055706001818180084 0.015553000383079052 -0.06333500146865845 0.053856998682022095
          0.01859300024807453 -0.0613740012049675 0.05415600165724754 0.0075690001249313354 -0.05550500005483627 0.04812199994921684
          0.00749000022187829 -0.05654300004243851 0.04924900084733963 0.007921000011265278 -0.057735998183488846 0.050418999046087265
          0.007930999621748924 -0.05995099991559982 0.04963099956512451 0.008682000450789928 -0.060770999640226364 0.05099400132894516
          0.009344999678432941 -0.0607450008392334 0.052528999745845795 0.007687999866902828 -0.058793000876903534 0.04978000000119209
          0.010332000441849232 -0.060336001217365265 0.054409999400377274 0.019860999658703804 -0.05854300037026405 0.05009400099515915
          0.019502000883221626 -0.05656500160694122 0.04803499951958656 0.019548999145627022 -0.059275999665260315 0.05122099816799164
          0.018425000831484795 -0.05532899871468544 0.04742899909615517 0.018290000036358833 -0.05269100144505501 0.04752200096845627
          0.019588999450206757 -0.06109499931335449 0.05316400155425072 0.016177000477910042 -0.05150999873876572 0.04809100180864334
          0.01514500007033348 -0.04973699897527695 0.04706300050020218 0.013542000204324722 -0.0520859993994236 0.046858999878168106
          0.0076870000921189785 -0.04392699897289276 0.0399169996380806 0.009763999842107296 -0.038061000406742096 0.03716399893164635
          0.009943000040948391 -0.031036999076604843 0.04011699929833412 0.012589000165462494 -0.031060999259352684 0.03500699996948242
          0.010928000323474407 -0.03098900057375431 0.03905000165104866 0.005452000070363283 -0.024253999814391136 0.03762400150299072
          0.0017359999474138021 -0.025591999292373657 0.037852998822927475 -0.0021379999816417694 -0.03323100134730339 0.03620300069451332
          -0.002067999914288521 -0.03484899923205376 0.0359640009701252 -0.0008110000053420663 -0.036584001034498215 0.03599099814891815
          0.001673000049777329 -0.04096699878573418 0.038068998605012894 -0.001471000025048852 -0.03217900171875954 0.03714299947023392
          -0.0023010000586509705 -0.025728000327944756 0.03516500070691109 0.004389999900013208 -0.045285001397132874 0.041131000965833664
          0.006591999903321266 -0.049545999616384506 0.04428799822926521 0.008357999846339226 -0.05589799955487251 0.0472479984164238
          0.00989300012588501 -0.05358999967575073 0.045621998608112335 0.010847000405192375 -0.05492899939417839 0.04614900052547455
          0.010502000339329243 -0.06095099821686745 0.05501699820160866 0.012374999932944775 -0.062483999878168106 0.054735999554395676
          0.011304999701678753 -0.06186399981379509 0.05520499870181084 0.013914000242948532 -0.06291799992322922 0.05431099981069565
          0.016713999211788177 -0.06298600137233734 0.052545998245477676 0.014646999537944794 -0.06348299980163574 0.05289499834179878
          0.018581999465823174 -0.061319999396800995 0.05174100026488304 0.017719000577926636 -0.062490999698638916 0.051013000309467316
          0.007782000117003918 -0.05857500061392784 0.0486299991607666 0.007650999817997217 -0.057718001306056976 0.04886600002646446
          0.008036999963223934 -0.059838999062776566 0.04833199828863144 0.00860700011253357 -0.06081800162792206 0.049630001187324524
          0.009475000202655792 -0.06133799999952316 0.050999000668525696 0.00990699976682663 -0.06131900101900101 0.05233199894428253
          0.010332999750971794 -0.06145400181412697 0.05350799858570099 0.010785999707877636 -0.06151299923658371 0.05418900027871132
          0.019207000732421875 -0.05969100072979927 0.04951300099492073 0.017204999923706055 -0.06221799924969673 0.0481639988720417
          0.017501000314950943 -0.05925099924206734 0.04619399830698967 0.018775999546051025 -0.060412000864744186 0.05046800151467323
          0.016592999920248985 -0.05750599876046181 0.04532499983906746 0.016316000372171402 -0.05566199868917465 0.046528998762369156
          0.017185000702738762 -0.05423500016331673 0.047272998839616776 0.013550999574363232 -0.055098000913858414 0.04712300002574921
          0.012232000008225441 -0.055208999663591385 0.046897999942302704 0.00634300010278821 -0.04786999896168709 0.042323999106884
          0.007375999819487333 -0.0469679981470108 0.04261400178074837 0.006324999965727329 -0.04466800019145012 0.040539998561143875
          0.002340999897569418 -0.03649500012397766 0.03302999958395958 0.00648100022226572 -0.034605998545885086 0.03092999942600727
          0.010072999633848667 -0.03306400030851364 0.0328419990837574 0.011556999757885933 -0.027411000803112984 0.03650699928402901
          0.012651000171899796 -0.029488999396562576 0.033268000930547714 0.00814099982380867 -0.03323199972510338 0.029443999752402306