<?xml version="1.0"?>
<VTKFile type="PolyData" version="0.1" byte_order="LittleEndian" header_type="UInt32" compressor="vtkZLibDataCompressor">
  <PolyData>
    <Piece NumberOfPoints="82" NumberOfVerts="0" NumberOfLines="0" NumberOfStrips="0" NumberOfPolys="160">
      <PointData Normals="Normals">
        <DataArray type="Float32" Name="Normals" NumberOfComponents="3" format="ascii" RangeMin="0.999999397132718" RangeMax="1.000000660088572">
          -0.6245949864387512 -0.6094719767570496 0.4882879853248596 -0.5361719727516174 -0.6353660225868225 -0.555724024772644
          -0.46101000905036926 -0.8761410117149353 -0.14088299870491028 -0.43497198820114136 -0.7508559823036194 0.49700599908828735
          -0.28060999512672424 -0.7159420251846313 -0.6392850279808044 -0.2743319869041443 -0.06983599811792374 0.9590960144996643
          -0.04273800179362297 -0.0031510000117123127 0.999081015586853 -0.33778300881385803 -0.5434349775314331 0.7684919834136963
          -0.40624499320983887 -0.3528909981250763 0.8428720235824585 -0.4371669888496399 -0.21825799345970154 0.8724960088729858
          -0.5603190064430237 -0.7635380029678345 -0.3210180103778839 0.09633900225162506 0.12086399644613266 -0.987982988357544
          -0.48889800906181335 -0.6744959950447083 -0.5532029867172241 0.2527259886264801 -0.9673510193824768 0.019020000472664833
          -0.030838999897241592 -0.8306080102920532 0.556003987789154 -0.2809630036354065 -0.8615620136260986 -0.42281201481819153
          -0.02744399942457676 0.17726199328899384 0.9837809801101685 -0.2559880018234253 -0.630020022392273 0.7331740260124207
          -0.10156600177288055 -0.8278189897537231 -0.5517240166664124 0.06565500050783157 -0.1992810070514679 -0.977741003036499
          0.3158720135688782 -0.4062260091304779 0.8574410080909729 0.4084550142288208 0.36907699704170227 0.834833025932312
          -0.14272500574588776 0.25200599431991577 0.9571430087089539 0.28276899456977844 0.6024500131607056 0.7463889718055725
          -0.2750389873981476 0.14456899464130402 0.9505019783973694 0.41301798820495605 0.9027720093727112 0.1200760006904602
          0.36243900656700134 0.9192100167274475 -0.15391899645328522 0.346994012594223 0.7361680269241333 -0.5810779929161072
          0.6633700132369995 0.4489710032939911 -0.5986369848251343 0.3996790051460266 -0.1074720025062561 -0.910332977771759
          0.0487929992377758 -0.5743950009346008 -0.8171229958534241 0.39584100246429443 0.6751149892807007 -0.6225190162658691
          0.145563006401062 -0.9180110096931458 -0.3688719868659973 0.6924189925193787 -0.6795769929885864 -0.24234500527381897
          -0.026503000408411026 0.5297160148620605 0.8477609753608704 0.1800689995288849 0.7417470216751099 0.6460540294647217
          0.037188999354839325 0.06686799973249435 0.9970690011978149 0.33172398805618286 0.7589020133018494 0.5603799819946289
          -0.250544011592865 -0.8779370188713074 0.40798699855804443 0.23290100693702698 -0.15828000009059906 -0.9595339894294739
          0.07156000286340714 -0.757319986820221 -0.6491119861602783 0.2163970023393631 -0.3905180096626282 -0.8948000073432922
          0.33893001079559326 0.37879401445388794 -0.8611860275268555 0.8791329860687256 -0.27355799078941345 0.3902460038661957
          0.8822590112686157 0.42803099751472473 0.1959809958934784 0.498865008354187 0.8325949907302856 0.24066400527954102
          0.9109020233154297 -0.16609899699687958 -0.37771499156951904 0.38507598638534546 0.9020770192146301 -0.19486799836158752
          0.2708140015602112 0.745477020740509 0.6090350151062012 -0.039163000881671906 -0.5637379884719849 0.8250250220298767
          -0.2960380017757416 -0.8749150037765503 0.3832559883594513 0.37274500727653503 0.32392099499702454 -0.8695610165596008
          -0.24906499683856964 -0.9527180194854736 -0.17405599355697632 0.0012260000221431255 -0.24315400421619415 -0.9699869751930237
          0.11498700082302094 -0.2223690003156662 -0.9681580066680908 0.28102999925613403 -0.10314200073480606 -0.9541400074958801
          0.9963380098342896 -0.040337998420000076 0.07538799941539764 0.44822901487350464 0.5167170166969299 -0.7294480204582214
          -0.561905026435852 0.7505300045013428 -0.347804993391037 -0.25710999965667725 0.9638590216636658 0.06978700309991837
          -0.30301499366760254 0.03980400040745735 0.9521539807319641 -0.4614740014076233 0.7700039744377136 0.4406070113182068
          -0.21025200188159943 -0.8433510065078735 0.49452298879623413 0.20571599900722504 -0.957065999507904 0.2042199969291687
          -0.4314369857311249 -0.6402480006217957 0.635565996170044 0.010042999871075153 -0.9736589789390564 0.22778600454330444
          -0.4955720007419586 -0.5616850256919861 0.662509024143219 -0.617156982421875 -0.7208970189094543 -0.3153179883956909
          0.017788000404834747 -0.20996500551700592 -0.9775469899177551 0.380156010389328 -0.05840900167822838 -0.9230759739875793
          0.19400200247764587 0.03423900157213211 -0.9804030060768127 -0.7676169872283936 0.04627100005745888 -0.6392359733581543
          0.19359800219535828 -0.0776119977235794 -0.9780060052871704 -0.05163799971342087 0.2616899907588959 -0.9637699723243713
          -0.9785680174827576 -0.05011399835348129 0.1997320055961609 -0.6371889710426331 0.25442400574684143 -0.7275009751319885
          -0.9355260133743286 0.3455750048160553 -0.07327800244092941 -0.9278540015220642 0.10230600088834763 0.3586359918117523
          -0.1432500034570694 -0.9796259999275208 0.1407579928636551 -0.6218720078468323 -0.6768820285797119 0.39383500814437866
          -0.7373819947242737 -0.5318580269813538 0.4164069890975952 -0.8879960179328918 -0.3987559974193573 0.22903400659561157
          <InformationKey name="L2_NORM_RANGE" location="vtkDataArray" length="2">
            <Value index="0">
              0.99999939713
            </Value>
            <Value index="1">
              1.0000006601
            </Value>
          </InformationKey>
        </DataArray>
      </PointData>
      <CellData>
      </CellData>
      <Points>
        <DataArray type="Float32" Name="Points" NumberOfComponents="3" format="ascii" RangeMin="0.11207270386872847" RangeMax="0.18053675893550286">
          0.1621749997138977 0.0033499998971819878 0.0003440000000409782 0.16236799955368042 0.00356299988925457 -0.0005249999812804163
          0.16900299489498138 -0.005142000038176775 0.0010870000114664435 0.15954099595546722 0.005028999876230955 0.0003760000108741224
          0.15640400350093842 0.007590999826788902 -0.0023219999857246876 0.17218199372291565 -0.0020359999034553766 0.005412000231444836
          0.17037400603294373 0.0008960000122897327 0.003971000202000141 0.17207199335098267 -0.00469700014218688 0.003790999995544553
          0.16745099425315857 0.0029329999815672636 0.0047690002247691154 0.16225400567054749 0.005198999773710966 0.0013379999436438084
          0.1695449948310852 -0.002939000027254224 -0.0014590000500902534 0.1708260029554367 0.006998000200837851 -0.003693999955430627
          0.17053699493408203 -0.0038920000661164522 -0.002303000073879957 0.174235999584198 -0.005946999881416559 0.0011350000277161598
          0.1732490062713623 -0.005166999995708466 0.0037090000696480274 0.1721539944410324 -0.005193999968469143 0.0005869999877177179
          0.15221799910068512 0.014611000195145607 0.0005660000024363399 0.1390949934720993 0.014758000150322914 -0.00108299998100847
          0.13212299346923828 0.017558999359607697 -0.0054870001040399075 0.13933199644088745 0.01859699934720993 -0.006570000201463699
          0.17681799829006195 -0.002213000087067485 0.005555000156164169 0.17816400527954102 0.0026549999602138996 0.0045819999650120735
          0.16830599308013916 0.005547999870032072 0.005090999882668257 0.1696159988641739 0.007424999959766865 0.00406799977645278
          0.16399599611759186 0.007720000110566616 0.0025579999200999737 0.15394900739192963 0.01676500029861927 -0.001117000007070601
          0.16837100684642792 0.009941999800503254 -0.0015589999966323376 0.17256399989128113 0.007910000160336494 -0.0030799999367445707
          0.17866599559783936 0.005146999843418598 -0.0012179999612271786 0.17706799507141113 -0.002222999930381775 -0.002964999992400408
          0.1752520054578781 -0.004385000094771385 -0.002877000020816922 0.15004000067710876 0.01738099940121174 -0.005293000023812056
          0.1757570058107376 -0.00532800005748868 -0.0015930000226944685 0.1772170066833496 -0.004097000230103731 -0.001978999935090542
          0.1645050048828125 0.00864499993622303 0.0021840000990778208 0.16396699845790863 0.011939000338315964 -0.00043799998820759356
          0.138387992978096 0.018323000520467758 -0.0004250000056345016 0.13660599291324615 0.02492699958384037 -0.0023350000847131014
          0.12771600484848022 0.017071999609470367 -0.001765000051818788 0.13450099527835846 0.021720999851822853 -0.007864000275731087
          0.11963299661874771 0.020092999562621117 -0.010215999558568 0.12930800020694733 0.019386999309062958 -0.008364999666810036
          0.13523100316524506 0.02426999993622303 -0.007081000134348869 0.17979800701141357 -0.0003100000030826777 0.00367900007404387
          0.17982199788093567 0.0032220000866800547 0.0015140000032261014 0.17737099528312683 0.005975000094622374 0.0008379999781027436
          0.18021200597286224 0.00004400000034365803 -0.0010379999876022339 0.1203169971704483 0.03363800048828125 -0.005688999779522419
          0.1184139996767044 0.0334010012447834 -0.0026340000331401825 0.12200000137090683 0.025860000401735306 0.0016670000040903687
          0.11862999945878983 0.019809000194072723 -0.005849000066518784 0.1312289983034134 0.025282999500632286 -0.008311999961733818
          0.1128230020403862 0.019598999992012978 -0.010737000033259392 0.11416099965572357 0.020912999287247658 -0.011672000400722027
          0.12171799689531326 0.024252999573946 -0.011145000346004963 0.12431299686431885 0.025537999346852303 -0.010906999930739403
          0.18053099513053894 0.000582000007852912 0.0013200000394135714 0.11879199743270874 0.032304998487234116 -0.011270999908447266
          0.1122170016169548 0.03489400073885918 -0.010804999619722366 0.11271300166845322 0.03518199920654297 -0.006268000230193138
          0.11265499889850616 0.028875000774860382 0.0025059999898076057 0.11165300011634827 0.034306999295949936 -0.0010920000495389104
          0.11672999709844589 0.02237600088119507 -0.003969999961555004 0.11354999989271164 0.02225399948656559 -0.005113000050187111
          0.11355800181627274 0.023097999393939972 -0.002845000009983778 0.11228500306606293 0.021462999284267426 -0.0051299999468028545
          0.11061199754476547 0.0267730001360178 -0.0003459999861661345 0.10965599864721298 0.021321000531315804 -0.01028599962592125
          0.12120600044727325 0.025053000077605247 -0.01116000022739172 0.11997900158166885 0.027860000729560852 -0.012357000261545181
          0.11948399990797043 0.028503000736236572 -0.012609000317752361 0.11103899776935577 0.028857000172138214 -0.01118400041013956
          0.12236200273036957 0.025661999359726906 -0.011478000320494175 0.11406199634075165 0.03220900148153305 -0.012834999710321426
          0.11026400327682495 0.028276000171899796 -0.00012599999899975955 0.11184199899435043 0.032919999212026596 -0.011951000429689884
          0.11187099665403366 0.033966001123189926 -0.0068259998224675655 0.1100120022892952 0.029817000031471252 0.0006000000284984708
          0.111626997590065 0.021529000252485275 -0.007013999857008457 0.11183299869298935 0.021562999114394188 -0.005543999839574099
          0.11001099646091461 0.024330999702215195 -0.0035039999056607485 0.10945399850606918 0.022633999586105347 -0.00823500007390976
          <InformationKey name="L2_NORM_RANGE" location="vtkDataArray" length="2">
            <Value index="0">
              0.11207270387
            </Value>
            <Value index="1">
              0.18053675894
            </Value>
          </InformationKey>
        </DataArray>
      </Points>
      <Verts>
        <DataArray type="Int64" Name="connectivity" format="ascii" RangeMin="1e+299" RangeMax="-1e+299">
        </DataArray>
        <DataArray type="Int64" Name="offsets" format="ascii" RangeMin="1e+299" RangeMax="-1e+299">
        </DataArray>
      </Verts>
      <Lines>
        <DataArray type="Int64" Name="connectivity" format="ascii" RangeMin="1e+299" RangeMax="-1e+299">
        </DataArray>
        <DataArray type="Int64" Name="offsets" format="ascii" RangeMin="1e+299" RangeMax="-1e+299">
        </DataArray>
      </Lines>
      <Strips>
        <DataArray type="Int64" Name="connectivity" format="ascii" RangeMin="1e+299" RangeMax="-1e+299">
        </DataArray>
        <DataArray type="Int64" Name="offsets" format="ascii" RangeMin="1e+299" RangeMax="-1e+299">
        </DataArray>
      </Strips>
      <Polys>
        <DataArray type="Int32" Name="connectivity" format="ascii" RangeMin="0" RangeMax="81">
          0 1 2 3 4 0
          0 5 6 1 0 4
          0 7 5 0 6 8
          0 8 9 9 3 0
          0 2 7 1 10 2
          4 11 1 11 12 1
          10 1 12 13 14 2
          2 10 15 15 13 2
          14 7 2 9 16 3
          17 18 3 4 3 18
          17 3 16 18 19 4
          11 4 19 5 20 6
          7 20 5 20 21 6
          22 8 6 6 23 22
          21 23 6 20 7 14
          9 8 22 9 24 16
          9 22 24 10 12 15
          25 26 11 27 11 26
          28 29 11 29 30 11
          28 11 27 30 12 11
          31 25 11 31 11 19
          12 30 15 15 32 13
          13 20 14 13 32 33
          20 13 33 30 32 15
          34 35 16 35 25 16
          16 24 34 36 17 16
          16 37 36 25 37 16
          18 17 38 38 17 36
          18 39 19 18 38 40
          18 41 39 41 18 40
          39 42 19 31 19 42
          21 20 43 43 20 33
          21 43 44 21 44 45
          21 45 23 22 35 34
          22 34 24 35 22 23
          23 26 35 45 26 23
          25 31 37 25 35 26
          26 45 27 27 45 28
          46 28 44 44 28 45
          29 28 46 29 46 33
          29 33 30 33 32 30
          31 47 37 47 31 42
          43 33 46 48 49 36
          48 36 37 38 36 49
          47 48 37 50 40 38
          38 49 50 39 51 42
          51 39 41 50 52 40
          52 53 40 40 53 54
          55 40 54 40 55 41
          51 41 55 42 51 47
          56 44 43 43 46 56
          46 44 56 47 51 57
          47 58 59 58 47 57
          48 47 59 49 48 60
          61 48 59 48 61 60
          62 49 63 49 64 65
          49 65 63 64 49 66
          49 60 66 49 62 50
          62 52 50 55 57 51
          53 52 67 62 67 52
          54 53 68 68 53 69
          70 69 53 53 71 70
          53 67 71 72 54 68
          72 55 54 55 72 57
          70 73 57 57 69 70
          57 72 69 58 57 73
          71 74 58 71 58 75
          58 74 76 75 58 73
          58 76 59 59 76 61
          74 60 77 60 61 77
          66 60 74 61 76 77
          62 78 67 78 62 63
          65 78 63 64 79 65
          66 80 64 80 81 64
          64 81 79 78 65 79
          80 66 74 78 81 67
          71 67 81 69 72 68
          71 73 70 81 74 71
          75 73 71 74 81 80
          74 77 76 78 79 81
        </DataArray>
        <DataArray type="Int32" Name="offsets" format="ascii" RangeMin="3" RangeMax="480">
          3 6 9 12 15 18
          21 24 27 30 33 36
          39 42 45 48 51 54
          57 60 63 66 69 72
          75 78 81 84 87 90
          93 96 99 102 105 108
          111 114 117 120 123 126
          129 132 135 138 141 144
          147 150 153 156 159 162
          165 168 171 174 177 180
          183 186 189 192 195 198
          201 204 207 210 213 216
          219 222 225 228 231 234
          237 240 243 246 249 252
          255 258 261 264 267 270
          273 276 279 282 285 288
          291 294 297 300 303 306
          309 312 315 318 321 324
          327 330 333 336 339 342
          345 348 351 354 357 360
          363 366 369 372 375 378
          381 384 387 390 393 396
          399 402 405 408 411 414
          417 420 423 426 429 432
          435 438 441 444 447 450
          453 456 459 462 465 468
          471 474 477 480
        </DataArray>
      </Polys>
    </Piece>
  </PolyData>
</VTKFile>
