<?xml version="1.0"?>
<VTKFile type="PolyData" version="0.1" byte_order="LittleEndian" header_type="UInt32" compressor="vtkZLibDataCompressor">
  <PolyData>
    <Piece NumberOfPoints="382" NumberOfVerts="0" NumberOfLines="0" NumberOfStrips="0" NumberOfPolys="760">
      <PointData Normals="Normals">
        <DataArray type="Float32" Name="Normals" NumberOfComponents="3" format="ascii" RangeMin="0.9999992591847003" RangeMax="1.0000006572757194">
          -0.04191799834370613 0.38304200768470764 0.9227790236473083 -0.2168090045452118 -0.01733200065791607 0.9760599732398987
          -0.023289000615477562 0.38285699486732483 0.9235140085220337 0.05277299880981445 0.7143179774284363 0.697829008102417
          -0.06588800251483917 0.33709099888801575 0.9391639828681946 -0.2732970118522644 -0.3104090094566345 0.9104700088500977
          -0.22995099425315857 -0.26880699396133423 0.935342013835907 -0.1596350073814392 -0.011719999834895134 0.98710697889328
          -0.06318599730730057 -0.23250800371170044 0.9705399870872498 -0.023053999990224838 0.11573199927806854 0.9930130243301392
          0.20243999361991882 0.4628260135650635 0.8630239963531494 0.17958299815654755 0.8631479740142822 0.47193801403045654
          0.10276699811220169 0.917792022228241 0.38353198766708374 0.1308860033750534 0.9497060179710388 0.28447699546813965
          -0.062477998435497284 0.6542999744415283 0.7536500096321106 0.1056009978055954 0.8024119734764099 0.5873519778251648
          0.13156099617481232 0.016462000086903572 0.9911710023880005 0.10516899824142456 0.5842360258102417 0.8047410249710083
          -0.4896959960460663 -0.6743119955062866 0.5527219772338867 -0.16168799996376038 -0.39915400743484497 0.9025149941444397
          -0.3658899962902069 -0.5003529787063599 0.7847110033035278 -0.2442149966955185 -0.46089598536491394 0.8531910181045532
          -0.11242499947547913 -0.41046199202537537 0.9049209952354431 -0.16396699845790863 -0.3975389897823334 0.9028170108795166
          -0.010009000077843666 -0.3237769901752472 0.9460809826850891 0.030900999903678894 -0.3189550042152405 0.9472659826278687
          -0.14011399447917938 -0.24698899686336517 0.9588350057601929 0.00392200006172061 0.21429899334907532 0.9767600297927856
          -0.007946999743580818 -0.09138999879360199 0.9957839846611023 0.3155519962310791 0.2655409872531891 0.9109969735145569
          0.2890320122241974 0.8642640113830566 0.41171398758888245 0.4677340090274811 0.7876830101013184 0.40097498893737793
          0.426472008228302 0.6761869788169861 0.6007429957389832 0.36372798681259155 0.47397899627685547 0.8019019961357117
          0.3031120002269745 0.8888540267944336 -0.3436020016670227 0.2066430002450943 0.9263619780540466 -0.3148849904537201
          0.3089120090007782 0.9494450092315674 0.05592700093984604 0.3223380148410797 0.8798540234565735 0.34922000765800476
          0.021609999239444733 0.9886029958724976 -0.14898400008678436 0.01796099916100502 0.997452974319458 -0.0690310001373291
          0.0974930003285408 0.9733089804649353 -0.2077600061893463 0.14401599764823914 0.9404820203781128 -0.30781999230384827
          0.5287420153617859 0.6689810156822205 0.5223950147628784 0.3574340045452118 -0.027514999732375145 0.9335330128669739
          0.5575709939002991 0.25458401441574097 0.7901269793510437 0.12107300013303757 -0.2491060048341751 0.9608790278434753
          -0.7429270148277283 -0.6222800016403198 0.24663199484348297 -0.6527289748191833 -0.7479950189590454 0.1202009990811348
          -0.32830899953842163 -0.79864901304245 0.5043540000915527 -0.5200639963150024 -0.6681039929389954 0.5321369767189026
          -0.5976219773292542 -0.6541979908943176 0.46354401111602783 -0.46140599250793457 -0.8817089796066284 0.09845899790525436
          -0.34849199652671814 -0.833109974861145 0.42951300740242004 -0.2006939947605133 -0.6546710133552551 0.7287859916687012
          -0.36833998560905457 -0.7141100168228149 0.5952919721603394 -0.04803700000047684 -0.2500010132789612 0.9670529961585999
          0.2755109965801239 -0.4926399886608124 0.8254690170288086 0.26687300205230713 -0.2124910056591034 0.9400140047073364
          0.20848800241947174 -0.2706809937953949 0.9398220181465149 -0.31822699308395386 -0.7937210202217102 0.5184000134468079
          -0.290147989988327 -0.7699229717254639 0.5683599710464478 0.16630099713802338 -0.25471600890159607 0.9526090025901794
          -0.1338919997215271 -0.7137799859046936 0.6874520182609558 0.3008210062980652 0.2897529900074005 0.908598005771637
          0.4324209988117218 0.8853489756584167 -0.17079000174999237 0.45813998579978943 0.8864989876747131 0.06501500308513641
          0.5596629977226257 0.8259149789810181 -0.06812900304794312 0.13721999526023865 0.7432600259780884 0.6547790169715881
          0.21629099547863007 0.8866540193557739 0.4087330102920532 -0.00029799999902024865 0.5276849865913391 0.8494399785995483
          0.3729430139064789 0.730929970741272 -0.571537971496582 0.17102399468421936 0.39916500449180603 -0.9007880091667175
          0.2727830111980438 0.4288719892501831 -0.861195981502533 0.4309769868850708 0.46833398938179016 -0.7713119983673096
          0.08821500092744827 0.5824180245399475 -0.8080880045890808 0.11238700151443481 0.24442599713802338 -0.9631329774856567
          0.5533260107040405 0.8060879707336426 0.20988599956035614 0.12949000298976898 0.9410340189933777 -0.31255099177360535
          0.3192650079727173 0.9086089730262756 -0.2692590057849884 0.5984650254249573 0.7953429818153381 -0.0962740033864975
          0.06833399832248688 0.8119950294494629 -0.5796499848365784 -0.06822499632835388 0.8743090033531189 -0.48054999113082886
          0.8595179915428162 0.32569798827171326 0.39389100670814514 0.8344699740409851 0.5350080132484436 0.13201099634170532
          0.5470749735832214 0.15629300475120544 0.822363018989563 0.6485120058059692 -0.0941459983587265 0.7553600072860718
          0.7637990117073059 0.1709969937801361 0.6223909854888916 -0.7129009962081909 -0.700764000415802 -0.026491999626159668
          -0.6508489847183228 -0.7569500207901001 -0.058497000485658646 -0.5831109881401062 -0.7898979783058167 0.18985000252723694
          -0.32678699493408203 -0.9124850034713745 0.24613100290298462 -0.4094890058040619 -0.8931819796562195 -0.18586300313472748
          -0.3147459924221039 -0.9490439891815186 -0.015853000804781914 -0.10173100233078003 -0.9080569744110107 0.4063040018081665
          0.30350199341773987 -0.7147219777107239 0.6301259994506836 0.45047900080680847 -0.31473299860954285 0.835470974445343
          0.6823170185089111 -0.6744329929351807 0.2821049988269806 0.5907989740371704 -0.38689300417900085 0.7080050110816956
          0.6854950189590454 -0.5667999982833862 0.4569840133190155 -0.2224379926919937 -0.9684839844703674 0.1120700016617775
          -0.15412800014019012 -0.903527021408081 0.39985498785972595 -0.007544999942183495 -0.30719301104545593 0.9516170024871826
          0.04879700019955635 -0.6952270269393921 0.7171319723129272 0.10203199833631516 -0.8702660202980042 0.48190000653266907
          -0.1744920015335083 0.1997929960489273 0.9641759991645813 0.5149739980697632 0.7439950108528137 -0.42576101422309875
          0.48602598905563354 0.7139509916305542 -0.5040349960327148 0.05083100125193596 0.9838870167732239 0.1714159995317459
          0.28247401118278503 0.9466540217399597 -0.15509599447250366 0.4412040114402771 0.7215319871902466 -0.5336019992828369
          0.5468029975891113 0.7347769737243652 -0.40138399600982666 -0.23040899634361267 0.7636280059814453 0.6031450033187866
          -0.07180099934339523 0.9028750061988831 0.4238640069961548 -0.4296939969062805 0.5240730047225952 0.7353299856185913
          0.24643999338150024 0.11164700239896774 -0.9627060294151306 0.16403000056743622 -0.336436003446579 -0.9273110032081604
          0.06858900189399719 -0.26964300870895386 -0.9605140089988708 0.33115699887275696 0.09802500158548355 -0.9384700059890747
          0.574114978313446 0.5564370155334473 -0.6006420254707336 0.383789986371994 -0.224590003490448 -0.895691990852356
          0.5199959874153137 0.12469299882650375 -0.8450189828872681 -0.15402700006961823 0.04778100177645683 -0.9869109988212585
          0.03419400006532669 0.6307209730148315 -0.7752559781074524 -0.04897800087928772 -0.1783740073442459 -0.9827430248260498
          -0.0011889999732375145 -0.31400299072265625 -0.9494209885597229 0.040038999170064926 0.840133011341095 -0.5409010052680969
          0.2831299901008606 0.8200569748878479 -0.4973379969596863 0.578669011592865 0.6974430084228516 -0.4227469861507416
          0.3057369887828827 0.6761940121650696 -0.6702880263328552 0.8421310186386108 0.4913260042667389 -0.22229400277137756
          -0.0071299998089671135 0.7392100095748901 -0.6734369993209839 -0.10343600064516068 0.7848110198974609 -0.6110420227050781
          0.9755229949951172 0.18968699872493744 0.11123999953269958 0.9625509977340698 -0.11840800195932388 0.24387699365615845
          0.9497439861297607 0.3110620081424713 -0.03502900153398514 0.8554610013961792 -0.37519198656082153 0.35695600509643555
          -0.671159029006958 -0.6619009971618652 -0.3338170051574707 -0.635761022567749 -0.5348730087280273 -0.5565239787101746
          -0.6077809929847717 -0.6567010283470154 -0.44648098945617676 -0.545553982257843 -0.7826769948005676 -0.29964500665664673
          -0.446821004152298 -0.8926569819450378 -0.05927800014615059 -0.12697599828243256 -0.9916099905967712 -0.024215999990701675
          -0.14074699580669403 -0.9800739884376526 -0.14016200602054596 -0.26134300231933594 -0.870917022228241 -0.4161759912967682
          -0.3380829989910126 -0.7446230053901672 -0.5755320191383362 -0.4688900113105774 -0.6657199859619141 -0.580482006072998
          -0.2165910005569458 -0.9389619827270508 -0.26728200912475586 -0.0021120000164955854 -0.9947810173034668 0.10201500356197357
          0.3517409861087799 -0.9013559818267822 0.2526549994945526 0.5324209928512573 -0.8352019786834717 -0.1377120018005371
          0.7135609984397888 -0.6995720267295837 -0.03782700002193451 0.8455110192298889 -0.5187709927558899 0.12644599378108978
          -0.044015999883413315 -0.9946150183677673 -0.09382899850606918 -0.14395900070667267 -0.9545919895172119 -0.2608250081539154
          -0.06508400291204453 -0.9715219736099243 0.22783799469470978 -0.1632079929113388 -0.050252001732587814 0.985310971736908
          -0.1808910071849823 -0.41411900520324707 0.892067015171051 0.050923001021146774 -0.6642799973487854 0.745747983455658
          -0.2349960058927536 -0.5928429961204529 0.770268976688385 0.23981699347496033 -0.7511339783668518 0.6150490045547485
          0.2901340126991272 -0.9283360242843628 0.2324109971523285 -0.3872140049934387 0.2415580004453659 0.8897839784622192
          0.42715200781822205 0.711097002029419 -0.558463990688324 0.31463000178337097 0.8330299854278564 -0.45504799485206604
          0.39691299200057983 0.6936159729957581 -0.6011300086975098 -0.2957960069179535 0.9250230193138123 0.23840700089931488
          -0.40532898902893066 0.9136840105056763 -0.029817000031471252 -0.3570829927921295 0.7465479969978333 -0.5613890290260315
          0.014453999698162079 0.819570004940033 -0.5727970004081726 -0.42003101110458374 0.7287960052490234 0.5407689809799194
          -0.31970399618148804 0.8530439734458923 0.4124389886856079 -0.6740540266036987 0.3502799868583679 0.6503499746322632
          -0.686165988445282 0.5430480241775513 0.484019011259079 0.2905229926109314 -0.3696649968624115 -0.8825780153274536
          0.06817000359296799 -0.6269090175628662 -0.7761039733886719 -0.007476999890059233 -0.7034059762954712 -0.7107489705085754
          0.15122200548648834 -0.6910060048103333 -0.7068529725074768 -0.1057019978761673 -0.7002180218696594 -0.7060610055923462
          0.4700019955635071 0.4506469964981079 -0.758957028388977 0.3734799921512604 -0.5618420243263245 -0.7381370067596436
          0.22940100729465485 -0.7364919781684875 -0.6363610029220581 0.2935490012168884 -0.03359600156545639 -0.9553539752960205
          0.2994930148124695 -0.2847200036048889 -0.9106249809265137 0.45490700006484985 0.2625809907913208 -0.8509470224380493
          -0.2082509994506836 -0.5725070238113403 -0.7930120229721069 -0.3485420048236847 -0.4674690067768097 -0.8123980164527893
          -0.2134149968624115 0.3451089859008789 -0.9139770269393921 -0.024891000241041183 0.6765379905700684 -0.7359870076179504
          0.23618699610233307 0.6909160017967224 -0.683264970779419 0.31669700145721436 0.5861300230026245 -0.7457579970359802
          0.7138140201568604 0.5452010035514832 -0.4395749866962433 0.4599030017852783 0.5570870041847229 -0.6914790272712708
          0.2201700061559677 0.5199589729309082 -0.8253290057182312 0.9272689819335938 0.3277980089187622 -0.18088799715042114
          0.8457120060920715 0.32958099246025085 -0.4196999967098236 0.0009180000051856041 0.6757820248603821 -0.7371010184288025
          0.9952470064163208 -0.004724999889731407 -0.09726300090551376 0.978875994682312 -0.20121699571609497 -0.03625199943780899
          0.8293039798736572 -0.5401480197906494 -0.14316099882125854 0.9453909993171692 -0.017909999936819077 -0.32544800639152527
          -0.3289099931716919 -0.7348740100860596 -0.5931090116500854 -0.45636600255966187 -0.7328159809112549 -0.5046889781951904
          -0.5805230140686035 -0.6678329706192017 -0.4658240079879761 -0.054979998618364334 -0.9156780242919922 -0.3981350064277649
          0.11001600325107574 -0.9878190159797668 -0.11004099994897842 -0.5659090280532837 -0.5464680194854736 -0.6173490285873413
          -0.46456998586654663 -0.47453999519348145 -0.7476540207862854 0.23743699491024017 -0.7787420153617859 -0.5806760191917419
          0.5064579844474792 -0.7349879741668701 -0.4508810043334961 0.30007100105285645 -0.950918972492218 -0.07556299865245819
          -0.011807000264525414 -0.8578159809112549 -0.513821005821228 0.12161999940872192 -0.9041969776153564 -0.4094350039958954
          -0.5565159916877747 -0.2786079943180084 0.7827309966087341 -0.5114160180091858 0.1717579960823059 0.841992974281311
          -0.3128829896450043 -0.6521900296211243 0.6904720067977905 -0.2186959981918335 -0.5393819808959961 0.8131660223007202
          -0.5600230097770691 -0.6418889760971069 0.5237870216369629 -0.622402012348175 -0.39877399802207947 0.6734949946403503
          0.20541900396347046 -0.8750529885292053 0.438275009393692 -0.24006399512290955 -0.6820899844169617 0.6907410025596619
          0.40490999817848206 -0.7831630110740662 0.47191399335861206 0.4003179967403412 -0.8987439870834351 0.17889900505542755
          -0.11452200263738632 0.8716530203819275 -0.4765569865703583 0.14958900213241577 0.7982119917869568 -0.5835080146789551
          0.0750569999217987 0.803288996219635 -0.5908409953117371 0.19168800115585327 0.5831189751625061 -0.7894480228424072
          -0.6898059844970703 0.7066199779510498 0.15765699744224548 -0.8612890243530273 0.507286012172699 -0.029007000848650932
          -0.9106659889221191 0.35606399178504944 -0.20953600108623505 -0.7429230213165283 0.36301499605178833 -0.562391996383667
          -0.5004289746284485 0.6510329842567444 -0.5707250237464905 -0.6865620017051697 0.7246410250663757 -0.05938899889588356
          -0.5208749771118164 0.7401949763298035 0.4252069890499115 -0.9046670198440552 0.2367199957370758 0.3543179929256439
          -0.9328489899635315 0.236517995595932 0.27175799012184143 -0.8077030181884766 0.5722439885139465 0.14195799827575684
          -0.9226179718971252 0.3856610059738159 0.0063760001212358475 0.22716699540615082 0.22076299786567688 -0.9485030174255371
          0.3079429864883423 -0.8801479935646057 -0.3612619936466217 0.4386120140552521 -0.6045560240745544 -0.6649289727210999
          0.4518339931964874 -0.8144950270652771 -0.3639279901981354 0.17261600494384766 -0.10802800208330154 -0.9790470004081726
          0.3765990138053894 -0.2670069932937622 -0.8870630264282227 -0.4329330027103424 -0.4418579936027527 -0.7857030034065247
          -0.3509350121021271 -0.3855380117893219 -0.853348970413208 -0.11318600177764893 -0.053762998431921005 -0.9921180009841919
          -0.02389100007712841 0.7271749973297119 -0.6860359907150269 0.21811699867248535 0.6663789749145508 -0.7129970192909241
          0.5669289827346802 0.394555002450943 -0.723131000995636 0.2273000031709671 0.6280320286750793 -0.744251012802124
          0.02882399968802929 0.7963070273399353 -0.6042060256004333 0.896369993686676 -0.28352299332618713 -0.34078601002693176
          0.8632220029830933 -0.4113360047340393 -0.29266101121902466 0.5380579829216003 -0.7296280264854431 -0.4220620095729828
          0.8193129897117615 -0.3802869915962219 -0.42907899618148804 0.7720109820365906 -0.032499998807907104 -0.6347770094871521
          -0.008232000283896923 -0.6189709901809692 -0.7853710055351257 -0.056908998638391495 -0.6851770281791687 -0.7261499762535095
          -0.1951259970664978 -0.7551659941673279 -0.6258190274238586 -0.15064099431037903 -0.945376992225647 -0.28908300399780273
          -0.2237350046634674 -0.9134079813957214 -0.34004300832748413 -0.5125970244407654 -0.6736220121383667 -0.5324259996414185
          -0.35284700989723206 -0.46077901124954224 -0.8143600225448608 -0.3620949983596802 -0.4634679853916168 -0.8087549805641174
          0.21243999898433685 -0.7784090042114258 -0.5907189846038818 0.3883630037307739 -0.9169139862060547 -0.09188300371170044
          -0.6304150223731995 -0.6850379705429077 0.36510300636291504 -0.973796010017395 -0.2162269949913025 0.07048500329256058
          -0.5948179960250854 -0.6893740296363831 0.4134669899940491 -0.8459410071372986 -0.3689810037612915 0.38501599431037903
          -0.7918360233306885 -0.5596799850463867 0.24444599449634552 -0.6192629933357239 -0.4294010102748871 0.6573650240898132
          -0.8730990290641785 -0.17414100468158722 0.45538198947906494 -0.7961080074310303 -0.3293609917163849 0.5076749920845032
          -0.17486800253391266 -0.9448829889297485 0.27679699659347534 0.16644200682640076 -0.9746519923210144 0.14949800074100494
          -0.5883539915084839 -0.6890910267829895 0.42307499051094055 -0.4192500114440918 0.7403309941291809 -0.5254899859428406
          -0.48023900389671326 0.8011000156402588 -0.3572239875793457 -0.10922999680042267 0.7602149844169617 -0.6404229998588562
          -0.024623999372124672 0.6671760082244873 -0.7444930076599121 0.09872999787330627 0.4077869951725006 -0.9077240228652954
          -0.9424449801445007 0.33172300457954407 -0.04191200062632561 -0.9414870142936707 0.2911669909954071 -0.1697770059108734
          -0.7677260041236877 0.5556420087814331 -0.3191539943218231 -0.6783009767532349 0.6808570027351379 -0.27629899978637695
          -0.922186017036438 0.34170401096343994 0.18113799393177032 -0.9085590243339539 0.41057100892066956 -0.07715500146150589
          -0.9651319980621338 0.251334011554718 0.0731550008058548 -0.9977840185165405 0.02211100049316883 -0.06274700164794922
          -0.9938030242919922 0.08962800353765488 -0.06573999673128128 -0.9319210052490234 0.31172698736190796 -0.18533900380134583
          0.16412800550460815 0.14615599811077118 -0.9755510091781616 0.3558799922466278 -0.6517950296401978 -0.6697109937667847
          0.3950429856777191 -0.8481590151786804 -0.35293900966644287 0.29157599806785583 0.051878999918699265 -0.9551399946212769
          0.12292400002479553 -0.48742198944091797 -0.8644710183143616 0.35049399733543396 -0.24157500267028809 -0.9048730134963989
          -0.01235899981111288 0.0575300008058548 -0.9982669949531555 -0.08980300277471542 -0.508027970790863 -0.8566470146179199
          0.14298799633979797 -0.6549019813537598 -0.7420629858970642 0.11726000159978867 0.1935109943151474 -0.9740650057792664
          0.059046000242233276 0.7652440071105957 -0.6410269737243652 0.3191950023174286 0.6420360207557678 -0.697068989276886
          0.4287880063056946 0.5305119752883911 -0.7312300205230713 0.39402198791503906 0.5254529714584351 -0.7540860176086426
          0.48742198944091797 0.4449790120124817 -0.7512750029563904 0.4364570081233978 0.3877989947795868 -0.811860978603363
          0.7368029952049255 -0.37160998582839966 -0.5648249983787537 0.8030530214309692 -0.30008700489997864 -0.5148329734802246
          0.6142119765281677 -0.6832870244979858 -0.3947939872741699 0.338034987449646 -0.8741469979286194 -0.3487110137939453
          0.7374629974365234 -0.47035399079322815 -0.48468101024627686 0.6837090253829956 -0.25289100408554077 -0.684535026550293
          -0.05252299830317497 -0.8870069980621338 -0.45875799655914307 0.028322000056505203 -0.9647039771080017 -0.2618109881877899
          -0.015182999894022942 -0.9499070048332214 -0.3121649920940399 -0.12467300146818161 -0.762578010559082 -0.6347690224647522
          -0.3128190040588379 -0.7513440251350403 -0.5810559988021851 -0.06827300041913986 -0.3992289900779724 -0.9143059849739075
          0.2492939978837967 -0.9242950081825256 -0.289016991853714 -0.17100700736045837 -0.9755899906158447 0.13777099549770355
          0.105833999812603 -0.9937620162963867 -0.03516300022602081 -0.7855250239372253 -0.5960209965705872 0.1664610058069229
          -0.9371659755706787 -0.3446660041809082 0.054090000689029694 -0.9752749800682068 -0.018737999722361565 0.22020000219345093
          -0.946632981300354 -0.26441898941993713 0.18430599570274353 -0.9267619848251343 -0.1685580015182495 0.33570998907089233
          -0.6731629967689514 -0.6763579845428467 0.29898300766944885 -0.18996599316596985 0.591202974319458 -0.7838320136070251
          -0.7479739785194397 0.6105890274047852 -0.2602219879627228 -0.9733660221099854 0.2182299941778183 -0.0702430009841919
          -0.9459319710731506 0.0655440017580986 0.31767499446868896 -0.9867960214614868 0.004290000069886446 -0.1619119942188263
          -0.9557949900627136 0.045809999108314514 0.2904449999332428 -0.9204019904136658 0.32648101449012756 -0.21510599553585052
          -0.9192699790000916 0.37279999256134033 -0.12634199857711792 -0.9904950261116028 0.1286509931087494 0.04866600036621094
          -0.999908983707428 -0.009154999628663063 0.009863999672234058 -0.28857600688934326 0.4528459906578064 -0.8435959815979004
          -0.18001000583171844 -0.8770319819450378 -0.44543400406837463 -0.25677600502967834 -0.7643529772758484 -0.5914649963378906
          0.1429399996995926 -0.951649010181427 -0.2719059884548187 -0.24422800540924072 0.29187899827957153 -0.9247480034828186
          -0.07835999876260757 -0.1432500034570694 -0.9865800142288208 -0.6035850048065186 -0.38049599528312683 -0.7006480097770691
          -0.6670600175857544 0.3286449909210205 -0.6685979962348938 -0.6249340176582336 0.13141000270843506 -0.7695379853248596
          0.24277900159358978 -0.619346022605896 -0.7466380000114441 0.1758439987897873 -0.46375998854637146 -0.8683350086212158
          0.40126800537109375 -0.10006999969482422 -0.9104779958724976 0.6008560061454773 -0.1354369968175888 -0.7878000140190125
          0.4892280101776123 -0.5142430067062378 -0.7044219970703125 0.3119710087776184 0.503154993057251 -0.8059210181236267
          0.5286120176315308 0.2719079852104187 -0.8041369915008545 0.5869629979133606 0.14576900005340576 -0.7963830232620239
          0.419856995344162 -0.42921701073646545 -0.7996829748153687 0.632328987121582 -0.3748440146446228 -0.6779760122299194
          0.689486026763916 -0.2973400056362152 -0.6604520082473755 0.46236300468444824 -0.7525500059127808 -0.46892300248146057
          0.49827098846435547 -0.08377599716186523 -0.8629649877548218 0.22077299654483795 -0.9366239905357361 -0.272022008895874
          0.1961739957332611 -0.6575130224227905 -0.7274559736251831 -0.39038199186325073 -0.8972579836845398 0.20622700452804565
          -0.5885109901428223 -0.7656099796295166 0.2598020136356354 -0.1852400004863739 -0.9804159998893738 0.06686700135469437
          -0.9699349999427795 0.1269419938325882 0.20763500034809113 -0.8712430000305176 -0.3955889940261841 0.29059600830078125
          -0.7877860069274902 -0.5299100279808044 0.3139899969100952 -0.8390780091285706 0.4604249894618988 -0.2897529900074005
          -0.9211959838867188 -0.3621729910373688 -0.1422249972820282 -0.8967170119285583 -0.43989500403404236 0.0488939993083477
          -0.8912860155105591 -0.401528000831604 0.21067699790000916 -0.6934000253677368 -0.6099830269813538 -0.3835580050945282
          -0.655534029006958 0.4105769991874695 -0.6337990164756775 -0.3239549994468689 -0.9439709782600403 -0.06302600353956223
          -0.6648470163345337 -0.696603000164032 -0.2696709930896759 -0.6473280191421509 -0.7607600092887878 -0.0470150001347065
          0.42528000473976135 -0.5345609784126282 -0.7303289771080017 0.7450550198554993 0.006401999853551388 -0.6669729948043823
          -0.5125809907913208 -0.8220289945602417 0.24804900586605072 -0.6821699738502502 -0.7039290070533752 0.19780999422073364
          <InformationKey name="L2_NORM_RANGE" location="vtkDataArray" length="2">
            <Value index="0">
              0.99999925918
            </Value>
            <Value index="1">
              1.0000006573
            </Value>
          </InformationKey>
        </DataArray>
      </PointData>
      <CellData>
      </CellData>
      <Points>
        <DataArray type="Float32" Name="Points" NumberOfComponents="3" format="ascii" RangeMin="0.11791548879253824" RangeMax="0.18336415626385483">
          0.16580000519752502 0.007329000160098076 0.03482000157237053 0.1654050052165985 0.005884999874979258 0.034901998937129974
          0.15909700095653534 0.009976999834179878 0.03320299834012985 0.16913500428199768 0.010520000010728836 0.031876999884843826
          0.1714629977941513 0.005288000218570232 0.03574899956583977 0.16239400207996368 0.004573000129312277 0.03366599977016449
          0.1674569994211197 0.003837999887764454 0.03517099842429161 0.16070200502872467 0.007313000038266182 0.033629000186920166
          0.16942399740219116 0.004459000192582607 0.035562001168727875 0.1564909964799881 0.008888999931514263 0.03339700028300285
          0.1348010003566742 0.01816900074481964 0.031096000224351883 0.1561879962682724 0.014302999712526798 0.029363000765442848
          0.1734360009431839 0.012369999662041664 0.02877099998295307 0.15894100069999695 0.014023999683558941 0.029116999357938766
          0.1727689951658249 0.008741999976336956 0.033521998673677444 0.1758520007133484 0.010067000053822994 0.03214100003242493
          0.17434699833393097 0.005111999809741974 0.03584799915552139 0.17540299892425537 0.008090999908745289 0.034428998827934265
          0.16077600419521332 0.00092299998505041 0.02979400008916855 0.15804700553417206 0.006308000069111586 0.033555999398231506
          0.16732299327850342 -0.0040790000930428505 0.030565999448299408 0.16722500324249268 0.0026599999982863665 0.03454500064253807
          0.16806000471115112 0.0033420000690966845 0.035092998296022415 0.16948799788951874 -0.00036899998667649925 0.03321100026369095
          0.17391100525856018 0.003926000092178583 0.03546300157904625 0.17413899302482605 0.0044999998062849045 0.03572100028395653
          0.14586399495601654 0.010718000121414661 0.03275100141763687 0.14160899817943573 0.013693000189960003 0.03224800154566765
          0.13411900401115417 0.014907999895513058 0.03212499991059303 0.13071100413799286 0.01905299909412861 0.031978998333215714
          0.1407719999551773 0.01869400031864643 0.028680000454187393 0.13577499985694885 0.02067900076508522 0.02865700051188469
          0.12793299555778503 0.02540699951350689 0.029726000502705574 0.12785300612449646 0.022251000627875328 0.031713999807834625
          0.1415420025587082 0.01936499960720539 0.02468699961900711 0.1543940007686615 0.015668999403715134 0.024647999554872513
          0.17609499394893646 0.01320900022983551 0.024720000103116035 0.17828699946403503 0.011630999855697155 0.02804899960756302
          0.16993099451065063 0.013535999692976475 0.024171000346541405 0.17321699857711792 0.013818000443279743 0.023781999945640564
          0.16391199827194214 0.014045000076293945 0.024557000026106834 0.1592469960451126 0.014639999717473984 0.024498000741004944
          0.17866599559783936 0.009500999934971333 0.0319180004298687 0.17661599814891815 0.003737000050023198 0.03510899841785431
          0.1780710071325302 0.007015000097453594 0.03406799957156181 0.17523500323295593 0.00392800010740757 0.035408999770879745
          0.16185800731182098 -0.0009350000182166696 0.028867999091744423 0.16049499809741974 0.000818000000435859 0.02875800058245659
          0.1571110039949417 0.0030519999563694 0.03095499984920025 0.16565799713134766 -0.003727999981492758 0.029810000211000443
          0.16365399956703186 -0.00267699989490211 0.02901099994778633 0.1569100022315979 0.002991999965161085 0.029934000223875046
          0.15248000621795654 0.005185000132769346 0.03109399974346161 0.1705700010061264 -0.004292000085115433 0.031773000955581665
          0.16711099445819855 -0.004606000147759914 0.030068999156355858 0.17519600689411163 -0.000539999979082495 0.03438900038599968
          0.17490899562835693 -0.0014890000456944108 0.03413999825716019 0.17602400481700897 0.0032649999484419823 0.035193998366594315
          0.17619499564170837 0.0006230000290088356 0.03458699956536293 0.1429159939289093 0.008706999942660332 0.030897000804543495
          0.13810299336910248 0.010799000039696693 0.031001999974250793 0.1306540071964264 0.015588999725878239 0.032496001571416855
          0.13374699652194977 0.012102000415325165 0.030355999246239662 0.12745100259780884 0.01998700015246868 0.03341500088572502
          0.13620400428771973 0.02124200016260147 0.02500399947166443 0.1261560022830963 0.02790199965238571 0.026498999446630478