<?xml version="1.0"?>
<VTKFile type="PolyData" version="0.1" byte_order="LittleEndian" header_type="UInt32" compressor="vtkZLibDataCompressor">
  <PolyData>
    <Piece NumberOfPoints="384" NumberOfVerts="0" NumberOfLines="0" NumberOfStrips="0" NumberOfPolys="768">
      <PointData Normals="Normals">
        <DataArray type="Float32" Name="Normals" NumberOfComponents="3" format="ascii" RangeMin="0.9999992353269825" RangeMax="1.000000684751612">
          -0.031817998737096786 0.2771739959716797 0.9602929949760437 0.5036380290985107 0.5440599918365479 0.6710799932479858
          -0.29882198572158813 0.11737199872732162 0.9470630288124084 -0.3164919912815094 -0.0630280002951622 0.9464989900588989
          0.24055500328540802 0.8873590230941772 0.39335399866104126 0.12220200151205063 -0.014612000435590744 0.9923980236053467
          0.08634299784898758 0.634103000164032 0.7684130072593689 0.6520100235939026 0.5853660106658936 0.48190099000930786
          0.6460409760475159 0.24616700410842896 0.7225180268287659 0.814827024936676 0.4592840075492859 0.35371699929237366
          0.3285979926586151 0.30483001470565796 0.8939250111579895 0.8078600168228149 0.31626999378204346 0.4973289966583252
          0.22049899399280548 0.5743870139122009 0.7883269786834717 0.5412189960479736 0.1687290072441101 0.8237789869308472
          0.5369009971618652 0.43821001052856445 0.7209089994430542 0.6967629790306091 0.7172240018844604 0.010544000193476677
          0.9364709854125977 0.300042986869812 -0.18164700269699097 -0.2200929969549179 0.03212200105190277 0.9749500155448914
          -0.3624750077724457 0.19488699734210968 0.9113889932632446 -0.12618499994277954 0.14080099761486053 0.9819639921188354
          -0.3796840012073517 0.05510399863123894 0.9234740138053894 -0.21952399611473083 -0.27204400300979614 0.9369099736213684
          0.4625619947910309 -0.38647401332855225 0.797918975353241 0.11832699924707413 -0.6314359903335571 0.7663469910621643
          0.6879569888114929 0.552137017250061 -0.47102001309394836 0.5271139740943909 0.8494679927825928 0.023547999560832977
          0.8146910071372986 -0.06047099828720093 0.5767340064048767 0.824770987033844 0.5246319770812988 -0.21098299324512482
          0.9577209949493408 0.2617320120334625 0.11944299936294556 0.011230000294744968 0.35128501057624817 0.9362009763717651
          0.6745970249176025 0.20519399642944336 0.7090939879417419 0.981768012046814 0.06054199859499931 -0.18018600344657898
          -0.6031010150909424 0.28950101137161255 0.743274986743927 -0.022060999646782875 0.43685901165008545 0.8992589712142944
          0.09670799970626831 -0.10942299664020538 0.9892799854278564 0.5349249839782715 0.12833799421787262 0.8350949883460999
          0.8427889943122864 0.3401069939136505 -0.41717401146888733 0.9468500018119812 0.26448801159858704 -0.18308700621128082
          0.8710100054740906 0.3837510049343109 -0.30671998858451843 0.6571260094642639 0.005286000203341246 -0.7537620067596436
          0.7578529715538025 0.21321900188922882 -0.6166009902954102 -0.25732800364494324 0.1725510060787201 0.950793981552124
          0.2051520049571991 -0.010001000016927719 0.9786790013313293 0.22899499535560608 -0.10373400151729584 0.9678840041160583
          -0.16019999980926514 -0.12270999699831009 0.9794269800186157 -0.16568200290203094 -0.0005709999823011458 0.986178994178772
          -0.14138999581336975 -0.7183409929275513 0.6811720132827759 0.6068490147590637 -0.63121098279953 0.48301899433135986
          0.8842639923095703 -0.2236119955778122 0.4099690020084381 0.37900999188423157 -0.8325549960136414 0.40398600697517395
          -0.044902998954057693 -0.7782049775123596 0.6264029741287231 0.9482849836349487 0.2190990000963211 -0.2296759933233261
          0.9751260280609131 0.05819600075483322 -0.21387599408626556 0.8190619945526123 0.13865000009536743 -0.5566989779472351
          0.9901689887046814 0.04568000137805939 0.13220800459384918 -0.7958369851112366 0.163099005818367 0.5831320285797119
          -0.26004400849342346 0.2750929892063141 0.9255819916725159 0.5492460131645203 0.2847760021686554 0.7856400012969971
          0.9954559803009033 -0.03805200010538101 -0.08729200065135956 0.11068599671125412 0.2583619952201843 0.9596859812736511
          0.6756020188331604 -0.15040500462055206 -0.7217620015144348 -0.5507799983024597 0.018724000081419945 0.8344410061836243
          -0.8176320195198059 0.013981999829411507 0.5755710005760193 0.16827799379825592 -0.007790999952703714 0.985709011554718
          0.5702409744262695 -0.14260800182819366 0.809004008769989 0.13148799538612366 -0.17262199521064758 0.9761729836463928
          0.7950220108032227 0.29012200236320496 -0.5326989889144897 0.964851975440979 0.21540600061416626 -0.15053699910640717
          0.8807209730148315 0.33394598960876465 -0.3358739912509918 0.4705989956855774 0.38590899109840393 -0.7934799790382385
          -0.12973999977111816 -0.16685700416564941 -0.9774079918861389 0.08258499950170517 -0.049382999539375305 -0.9953600168228149
          0.37849101424217224 0.016575999557971954 -0.9254570007324219 -0.42316898703575134 -0.4515039920806885 0.7855389714241028
          -0.5036600232124329 -0.24640700221061707 0.8280159831047058 0.6422669887542725 -0.15766899287700653 0.7500889897346497
          0.2497359961271286 -0.2812559902667999 0.926567018032074 0.08766400068998337 -0.33441299200057983 0.9383410215377808
          -0.2862919867038727 -0.33661699295043945 0.8970649838447571 -0.06780900061130524 -0.9011210203170776 0.42823201417922974
          0.6569709777832031 -0.7522069811820984 0.05074400082230568 0.8375260233879089 -0.36027300357818604 0.4107950031757355
          0.9161829948425293 -0.4006049931049347 -0.011157000437378883 0.3280029892921448 -0.9256629943847656 0.1885789930820465
          0.7544410228729248 -0.46190398931503296 -0.46632999181747437 0.8360649943351746 -0.18185199797153473 -0.517615020275116
          -0.9743779897689819 0.0328419990837574 0.22250400483608246 -0.75422602891922 0.18685199320316315 0.6294680237770081
          -0.9780480265617371 -0.0561240017414093 -0.20067700743675232 -0.9884600043296814 -0.000009000000318337698 0.15148499608039856
          -0.23429100215435028 0.17559799551963806 0.9561759829521179 -0.7938550114631653 0.11392399668693542 0.5973399877548218
          0.8596529960632324 0.16797299683094025 0.4824739992618561 0.6144760251045227 0.18804599344730377 0.7661970257759094
          0.15336300432682037 0.30019399523735046 0.9414690136909485 0.941440999507904 -0.2198989987373352 -0.25560298562049866
          0.6572369933128357 -0.2974889874458313 -0.6924890279769897 0.20330899953842163 -0.27059701085090637 -0.9409800171852112
          -0.4736439883708954 -0.08649100363254547 0.876459002494812 -0.737500011920929 -0.21299800276756287 0.6408789753913879
          -0.17475800216197968 -0.2505689859390259 0.9521949887275696 -0.8921539783477783 -0.35712599754333496 0.27662599086761475
          -0.9317139983177185 -0.062137000262737274 0.3578380048274994 0.9682610034942627 0.019739000126719475 -0.2491620033979416
          0.6617940068244934 -0.1533139944076538 -0.7338420152664185 0.253493994474411 0.1386220008134842 -0.9573529958724976
          -0.02215299941599369 0.025589000433683395 -0.9994270205497742 -0.7045109868049622 -0.051311999559402466 -0.7078350186347961
          -0.794435977935791 -0.08298099786043167 -0.6016520261764526 0.1801760047674179 -0.029905999079346657 -0.9831799864768982
          -0.16524699330329895 0.06509699672460556 -0.9841020107269287 0.31267300248146057 -0.2915459871292114 -0.9040110111236572
          0.10551200062036514 -0.12511800229549408 -0.9865149855613708 -0.4700950086116791 -0.824222981929779 0.31570199131965637
          -0.5669000148773193 -0.5452229976654053 0.6175410151481628 -0.008256999775767326 -0.41672399640083313 0.9089959859848022
          -0.44415900111198425 -0.48816099762916565 0.7512800097465515 0.18275000154972076 -0.9628289937973022 -0.19890600442886353
          0.4160209894180298 -0.6107980012893677 -0.6736860275268555 0.5393689870834351 -0.44946300983428955 -0.7120850086212158
          0.6236469745635986 -0.23456600308418274 -0.7456830143928528 -0.9910969734191895 0.11860200017690659 0.060506001114845276
          -0.948632001876831 0.04830000177025795 0.31267398595809937 -0.8710600137710571 0.14082300662994385 -0.47055700421333313
          0.358258992433548 0.1304740011692047 0.9244610071182251 -0.007807999849319458 0.00970499962568283 0.999921977519989
          -0.4609450101852417 0.005714000202715397 0.8874099850654602 -0.8311480283737183 0.039583999663591385 0.5546410083770752
          -0.9878489971160889 0.05157199874520302 0.14660899341106415 -0.9851340055465698 0.15786799788475037 -0.06774800270795822
          0.886201024055481 -0.01635099947452545 0.4630109965801239 0.5239490270614624 0.08386900275945663 0.8476110100746155
          0.743028998374939 -0.009844999760389328 0.669185996055603 0.9646480083465576 -0.26172301173210144 -0.030897999182343483
          0.6462200284004211 -0.4386659860610962 -0.6244779825210571 0.5329220294952393 -0.4203779995441437 -0.7343540191650391
          -0.023598000407218933 -0.3300969898700714 -0.9436519742012024 -0.7305859923362732 -0.4170610010623932 0.5406519770622253
          -0.6216580271720886 -0.783257007598877 0.007079000119119883 -0.5203760266304016 -0.5638800263404846 -0.6412860155105591
          -0.8789799809455872 -0.33000698685646057 -0.3442240059375763 -0.9452890157699585 -0.22471100091934204 0.236503005027771
          -0.8659600019454956 -0.443448007106781 0.2312290072441101 -0.13020600378513336 -0.0681840032339096 -0.989139974117279
          -0.08697699755430222 -0.1590459942817688 -0.9834319949150085 -0.618707001209259 -0.03057200089097023 -0.785027027130127
          0.19458499550819397 -0.2343129962682724 -0.9524890184402466 -0.7553430199623108 -0.06283900141716003 -0.6523100137710571
          -0.45760399103164673 0.07037600129842758 -0.8863670229911804 0.03660000115633011 -0.4842369854450226 -0.8741710186004639
          -0.04072299972176552 -0.5184419751167297 -0.8541430234909058 -0.435124009847641 -0.2854729890823364 -0.8539159893989563
          -0.3052479922771454 -0.9208859801292419 -0.24247199296951294 -0.08584500104188919 -0.7739610075950623 -0.6273880004882812
          -0.1913979947566986 -0.3459419906139374 -0.9185270071029663 -0.07035700231790543 -0.2168709933757782 -0.9736620187759399
          -0.9987319707870483 -0.03385800123214722 0.03725900128483772 -0.7345690131187439 -0.09100700169801712 -0.6724039912223816
          -0.06749799847602844 -0.13583199679851532 0.9884300231933594 -0.4656760096549988 0.0057669999077916145 0.8849359750747681
          0.3135649859905243 0.04503700137138367 0.948498010635376 -0.7789220213890076 0.08525300025939941 0.6212990283966064
          -0.9720519781112671 0.056487999856472015 0.2278670072555542 -0.9599519968032837 -0.020198000594973564 -0.2794339954853058
          -0.9708499908447266 -0.1761160045862198 -0.16258400678634644 -0.8060299754142761 -0.07870599627494812 -0.5866180062294006
          0.8516250252723694 -0.11073099821805954 0.5123209953308105 0.6365579962730408 0.04901700094342232 0.7696700096130371
          0.5108029842376709 0.11297599971294403 0.8522419929504395 0.4728949964046478 0.1436229944229126 0.8693349957466125
          0.6200950145721436 -0.5579929947853088 -0.5514770150184631 0.9287359714508057 -0.36836400628089905 0.041916001588106155
          0.828033983707428 -0.09885799884796143 0.5518940091133118 0.2361290007829666 -0.4181790053844452 -0.8771370053291321
          0.04435399919748306 -0.435029000043869 -0.8993239998817444 -0.14856700599193573 -0.5004079937934875 -0.852948009967804
          -0.22881199419498444 -0.36959800124168396 -0.9005789756774902 -0.19712600111961365 -0.21950800716876984 -0.9554880261421204
          -0.5091840028762817 -0.4552049934864044 -0.7304250001907349 -0.8652819991111755 -0.49099698662757874 -0.1010420024394989
          -0.47912201285362244 -0.6690679788589478 -0.5681470036506653 -0.7688869833946228 -0.5607380270957947 -0.30722299218177795
          -0.5757870078086853 -0.25693899393081665 -0.7761780023574829 -0.3098810017108917 -0.6757540106773376 -0.668828010559082
          -0.6518210172653198 -0.3471220135688782 -0.6742669939994812 0.4239470064640045 -0.0053980001248419285 0.9056710004806519
          0.4627560079097748 -0.07794500142335892 0.8830519914627075 0.4585059881210327 -0.25591498613357544 0.8510460257530212
          -0.7609800100326538 -0.21403199434280396 0.6124539971351624 -0.3805370032787323 -0.443682998418808 0.8113800287246704
          -0.9614139795303345 0.04693099856376648 0.27107399702072144 -0.9961450099945068 -0.034800998866558075 0.08052700012922287
          -0.7350109815597534 -0.3255229890346527 -0.5948050022125244 -0.9040160179138184 -0.3617750108242035 -0.22776000201702118
          -0.7072610259056091 -0.2704479992389679 -0.65317702293396 0.8316670060157776 -0.053700000047683716 0.5526720285415649
          0.7017379999160767 0.04248100146651268 0.7111679911613464 0.48149698972702026 0.20542700588703156 0.8520330190658569
          0.5838959813117981 0.09485000371932983 0.8062679767608643 0.54994797706604 0.23334600031375885 0.8019390106201172
          0.6534780263900757 0.015569999814033508 0.756784975528717 0.8740079998970032 -0.3920550048351288 -0.2870599925518036
          0.23048800230026245 -0.6425930261611938 -0.7307189702987671 -0.05612599849700928 -0.5783299803733826 -0.8138700127601624
          0.15305699408054352 -0.3884980082511902 -0.9086490273475647 0.6685069799423218 -0.5332670211791992 -0.5183870196342468
          0.9596390128135681 -0.12950399518013 0.2496419996023178 0.9609820246696472 -0.2707340121269226 -0.056713998317718506
          -0.009690999984741211 -0.35976600646972656 -0.9329919815063477 0.16152699291706085 -0.13239799439907074 -0.9779469966888428
          -0.0234570000320673 -0.11107700318098068 -0.9935349822044373 -0.5328869819641113 -0.49105599522590637 -0.6891260147094727
          0.45796701312065125 -0.1975950002670288 0.8667309880256653 -0.8925650119781494 -0.14323900640010834 0.42756301164627075
          -0.5364680290222168 -0.0999860018491745 0.8379769921302795 -0.9419559836387634 0.24539099633693695 0.22913500666618347
          -0.8844469785690308 0.25528401136398315 0.3906190097332001 -0.9849140048027039 0.002363000065088272 0.17302800714969635
          -0.995235025882721 0.04801400005817413 0.084866002202034 -0.9196599721908569 0.06069599837064743 0.38799598813056946
          -0.7311859726905823 -0.4704129993915558 -0.4940429925918579 -0.8108239769935608 -0.3728579878807068 -0.45115599036216736
          -0.48089998960494995 -0.584721028804779 -0.6533269882202148 -0.9705950021743774 -0.027698000892996788 -0.23911899328231812
          0.9723140001296997 0.0444520004093647 0.22940899431705475 0.6691529750823975 0.21033799648284912 0.7127360105514526
          0.71977299451828 0.360835999250412 0.59306401014328 0.328220009803772 0.564287006855011 0.7575299739837646
          0.9993919730186462 0.01232799980789423 -0.03260999917984009 0.9380800127983093 -0.09914000332355499 -0.3319289982318878
          0.8346959948539734 -0.23507000505924225 -0.4980210065841675 -0.1559929996728897 -0.5393589735031128 -0.8275009989738464
          0.549310028553009 -0.505128026008606 -0.6656609773635864 0.2539060115814209 -0.39070799946784973 -0.8848040103912354
          -0.2567479908466339 -0.37160900235176086 -0.8921809792518616 -0.15333299338817596 -0.37331798672676086 -0.9149439930915833
          -0.001057000015862286 -0.518526017665863 -0.8550609946250916 -0.0503619983792305 -0.6887949705123901 -0.7232049703598022
          0.14959000051021576 -0.2851409912109375 -0.946740984916687 0.05561000108718872 -0.31380799412727356 -0.9478570222854614
          0.3913480043411255 -0.2998110055923462 -0.8700349926948547 -0.11156900227069855 -0.5636990070343018 -0.8184109926223755
          0.16993699967861176 0.2523390054702759 0.9526000022888184 0.7136080265045166 0.12769000232219696 0.6888089776039124
          -0.45089900493621826 0.3697830140590668 0.8123729825019836 -0.912397027015686 0.21496500074863434 0.34831398725509644
          -0.9705399870872498 0.1927659958600998 0.14454400539398193 -0.9649530053138733 0.2090339958667755 -0.15865099430084229
          -0.9792159795761108 0.18501999974250793 -0.08309400081634521 -0.8993600010871887 0.25436899065971375 0.3555949926376343
          -0.9860410094261169 0.1574539989233017 0.05413300171494484 -0.9796220064163208 0.19912299513816833 -0.026277000084519386
          -0.9658740162849426 0.2194949984550476 -0.1375110000371933 -0.9597449898719788 0.07283700257539749 0.2712630033493042
          -0.5827400088310242 0.3023509979248047 0.7543190121650696 0.051757000386714935 -0.45146799087524414 -0.8907849788665771
          -0.6613860130310059 -0.3809579908847809 -0.6460959911346436 -0.8771290183067322 0.09911499917507172 -0.4699150025844574
          -0.7869330048561096 0.17991699278354645 -0.5902249813079834 -0.7696589827537537 0.07485699653625488 -0.6340519785881042
          0.9909449815750122 -0.1321289986371994 -0.023858999833464622 0.936913013458252 -0.3084760010242462 -0.16442899405956268
          0.993241012096405 -0.07958699762821198 -0.08449099957942963 0.6823639869689941 0.4227449893951416 0.5963770151138306
          0.19148899614810944 0.607928991317749 0.7705540060997009 0.6083790063858032 0.46904999017715454 0.6402090191841125
          0.9334560036659241 -0.24771499633789062 -0.25941500067710876 0.9505659937858582 -0.25858598947525024 -0.1719219982624054
          0.7827320098876953 -0.3405509889125824 -0.5209190249443054 0.9156910181045532 -0.2931939959526062 -0.2748570144176483
          0.3983199894428253 -0.3546009957790375 -0.8459309935569763 0.10651300102472305 -0.20005899667739868 -0.9739770293235779
          0.45490700006484985 -0.07141800224781036 -0.8876709938049316 -0.16903600096702576 -0.24020999670028687 -0.9558899998664856
          -0.3107970058917999 -0.19901899993419647 -0.929407000541687 0.03523999825119972 -0.6299149990081787 -0.7758640050888062
          -0.37317800521850586 -0.6649069786071777 -0.6470209956169128 -0.22934900224208832 -0.6105499863624573 -0.7580419778823853
          -0.30013900995254517 -0.45420101284980774 -0.8388190269470215 0.27860701084136963 -0.41339999437332153 -0.8668789863586426
          0.19452300667762756 -0.23015199601650238 -0.9535149931907654 -0.3999919891357422 -0.6467139720916748 -0.6494359970092773
          0.5937139987945557 0.5102909803390503 0.6221780180931091 0.2982589900493622 0.5636940002441406 0.7702540159225464
          0.2128870040178299 0.506816029548645 0.8353549838066101 -0.8593469858169556 0.35666799545288086 0.36648398637771606
          -0.7565119862556458 0.13631600141525269 -0.6396160125732422 -0.7870479822158813 0.6118869781494141 -0.07842600345611572
          -0.920041024684906 0.303070992231369 -0.2483379989862442 -0.7135729789733887 0.6960980296134949 0.07913599908351898
          -0.9276480078697205 0.26351198554039 0.2646329998970032 -0.8301309943199158 0.49762600660324097 0.25149598717689514
          -0.7813209891319275 0.5831800103187561 -0.22235000133514404 -0.8961939811706543 0.4436509907245636 0.0032679999712854624
          -0.8168500065803528 0.5723159909248352 0.07218100130558014 -0.7079660296440125 0.3597419857978821 0.6077579855918884
          -0.015046999789774418 0.7700390219688416 0.6378189921379089 -0.4609600007534027 -0.2991139888763428 -0.8354920148849487
          -0.419499009847641 0.2139129936695099 -0.8821920156478882 -0.40378400683403015 0.13536399602890015 -0.9047849774360657
          0.9762259721755981 0.07394000142812729 0.20375500619411469 0.9405159950256348 -0.31195899844169617 -0.1345759928226471
          0.6158109903335571 0.4660379886627197 0.6352829933166504 0.30477699637413025 0.4970659911632538 0.812425971031189
          0.5621539950370789 0.7935929894447327 0.23279599845409393 0.7399539947509766 0.5799520015716553 0.3407680094242096
          0.9206529855728149 -0.27702000737190247 -0.2750610113143921 0.5240479707717896 -0.4781250059604645 -0.7048199772834778
          0.1846349984407425 -0.3572860062122345 -0.9155640006065369 0.9627190232276917 0.1660110056400299 -0.21357199549674988
          0.7949450016021729 -0.15486900508403778 -0.5865809917449951 -0.36058101058006287 -0.15148800611495972 -0.9203439950942993
          0.43892401456832886 -0.1606760025024414 -0.8840410113334656 0.01795000024139881 -0.01782199926674366 -0.9996799826622009
          -0.33692699670791626 -0.08652699738740921 -0.9375460147857666 -0.29831600189208984 -0.37764599919319153 -0.8765789866447449
          -0.4110049903392792 -0.22033199667930603 -0.8846060037612915 -0.2732340097427368 -0.569782018661499 -0.7750419974327087
          -0.2877579927444458 -0.5472069978713989 -0.7859770059585571 -0.27335500717163086 -0.363970011472702 -0.8903949856758118
          -0.377826988697052 -0.23816299438476562 -0.8947209715843201 0.39267098903656006 -0.3898169994354248 -0.8329780101776123
          0.32258400321006775 -0.14460699260234833 -0.9354299902915955 -0.376583993434906 -0.2865599989891052 -0.8809469938278198
          -0.7230179905891418 0.46439799666404724 0.5114489793777466 -0.19830399751663208 0.07262200117111206 -0.9774460196495056
          -0.5985220074653625 0.07307200133800507 -0.7977669835090637 -0.7897819876670837 0.43137800693511963 -0.4360710084438324
          -0.3063800036907196 0.946278989315033 0.10337699949741364 -0.26460400223731995 0.9576730132102966 -0.11334200203418732
          -0.805420994758606 0.5908439755439758 0.046904999762773514 -0.4767490029335022 0.8790320158004761 0.0035910001024603844
          -0.7122210264205933 0.5604640245437622 0.4226360023021698 -0.5979350209236145 0.7845479846000671 -0.16418899595737457
          -0.34543299674987793 0.9230960011482239 -0.16902799904346466 -0.4576700031757355 0.8890990018844604 0.006461999844759703
          0.6046389937400818 0.6700260043144226 0.43067100644111633 0.9766079783439636 0.17291900515556335 -0.12781299650669098
          0.8738399744033813 0.23572899401187897 -0.42524799704551697 0.6771720051765442 0.4079509973526001 0.6123830080032349
          0.7104210257530212 0.6982979774475098 -0.08765000104904175 0.2719759941101074 0.9600369930267334 -0.06601499766111374
          -0.1049799993634224 0.9420719742774963 -0.3185589909553528 0.27507901191711426 0.8915179967880249 -0.35989999771118164
          0.7981370091438293 0.5764610171318054 -0.17512600123882294 -0.36816200613975525 -0.3299559950828552 -0.8692439794540405
          -0.10945200175046921 -0.3070549964904785 -0.945376992225647 0.3785319924354553 0.8249710202217102 -0.4196870028972626
          0.7446920275688171 0.6222959756851196 -0.24120700359344482 0.2628610134124756 0.47899100184440613 -0.83753901720047
          -0.3545910120010376 -0.04022600129246712 -0.9341560006141663 0.5657529830932617 -0.17237399518489838 -0.8063560128211975
          0.6225619912147522 -0.382968008518219 -0.6824600100517273 -0.3705889880657196 -0.09901899844408035 -0.9235039949417114
          -0.3160640001296997 -0.13757899403572083 -0.9387099742889404 -0.1835229992866516 -0.17772500216960907 -0.9668160080909729
          -0.6406239867210388 0.745913028717041 0.1822499930858612 -0.43814900517463684 0.014500999823212624 -0.8987860083580017
          -0.7044559717178345 0.657414972782135 -0.26748499274253845 -0.722383975982666 0.1668979972600937 -0.6710479855537415
          -0.5666339993476868 -0.011404000222682953 -0.8238909840583801 -0.46131500601768494 0.026466000825166702 -0.8868420124053955
          -0.22088900208473206 0.9741050004959106 -0.04823699966073036 -0.24924099445343018 0.9682490229606628 -0.01930299960076809
          -0.12030400335788727 0.9913349747657776 -0.05274700000882149 -0.37866899371147156 0.9155920147895813 -0.13528099656105042
          -0.4340740144252777 0.8984799981117249 0.06568299978971481 -0.24922800064086914 0.9449120163917542 -0.21219399571418762
          -0.35126200318336487 0.9001280069351196 -0.25765201449394226 0.7875789999961853 0.341497004032135 -0.5129330158233643
          0.26727500557899475 0.7948830127716064 -0.5447239875793457 -0.08697099983692169 0.9781209826469421 -0.18898600339889526
          0.38145899772644043 0.6890829801559448 -0.6161609888076782 -0.28511399030685425 -0.5010470151901245 -0.8171060085296631
          -0.3321160078048706 0.09668300300836563 -0.9382709860801697 -0.4406430125236511 -0.18561799824237823 -0.8782820105552673
          -0.22403700649738312 0.6094610095024109 -0.7605029940605164 -0.050599999725818634 0.8588669896125793 -0.50969398021698
          -0.3049199879169464 0.3044610023498535 -0.9024009704589844 -0.2349729984998703 0.18489299714565277 -0.9542549848556519
          -0.486395001411438 -0.037473998963832855 -0.8729349970817566 -0.21968799829483032 0.6791489720344543 -0.7003530263900757
          -0.6479300260543823 -0.13116900622844696 -0.7503209710121155 0.2956849932670593 0.7963430285453796 -0.5276439785957336
          <InformationKey name="L2_NORM_RANGE" location="vtkDataArray" length="2">
            <Value index="0">
              0.99999923533
            </Value>
            <Value index="1">
              1.0000006848
            </Value>
          </InformationKey>
        </DataArray>
      </PointData>
      <CellData>
      </CellData>
      <Points>
        <DataArray type="Float32" Name="Points" NumberOfComponents="3" format="ascii" RangeMin="0.03407045035759325" RangeMax="0.09405631951055005">
          0.004308000206947327 -0.07650300115346909 0.04121600091457367 0.0004870000120718032 -0.07331100106239319 0.03927300125360489
          0.0023129999171942472 -0.07639499753713608 0.0404449999332428 0.0016339999856427312 -0.08243899792432785 0.04123299941420555
          0.0024659999180585146 -0.07453499734401703 0.04006100073456764 0.003907000180333853 -0.07982199639081955 0.04163900017738342
          0.0037479999009519815 -0.07499399781227112 0.040667999535799026 0.004226000048220158 -0.0755700021982193 0.04092799872159958
          0.004980999976396561 -0.07735099643468857 0.0412600003182888 0.0047079999931156635 -0.07602699846029282 0.040516000241041183
          0.0006469999789260328 -0.07469599694013596 0.03956500068306923 -0.000742000003810972 -0.06820899993181229 0.036139000207185745
          -0.0027389999013394117 -0.07110200077295303 0.03989199921488762 0.00043700000969693065 -0.07503899931907654 0.040038999170064926
          -0.0013000000035390258 -0.07278700172901154 0.04069500043988228 0.0015660000499337912 -0.07408499717712402 0.0382549986243248
          0.00042699999175965786 -0.0721839964389801 0.035461001098155975 -0.0006479999865405262 -0.08185099810361862 0.0399399995803833
          -0.0001049999991664663 -0.08374500274658203 0.039969999343156815 0.0009280000231228769 -0.07649300247430801 0.04022499918937683
          0.0007360000163316727 -0.07802899926900864 0.04015599936246872 0.0005970000056549907 -0.08410300314426422 0.04041200131177902
          0.003444999922066927 -0.0823260024189949 0.041294001042842865 0.001962000038474798 -0.08440999686717987 0.0405069999396801
          0.0021269998978823423 -0.07475599646568298 0.038120001554489136 0.003719999920576811 -0.07469099760055542 0.03996099904179573
          0.005115999840199947 -0.07846800237894058 0.04120799899101257 0.00457199988886714 -0.07576800137758255 0.0397690013051033
          0.005111999809741974 -0.07700199633836746 0.04054399952292442 -0.0039980001747608185 -0.06306099891662598 0.03650299832224846
          -0.0017359999474138021 -0.05826300010085106 0.034060001373291016 -0.0011919999960809946 -0.061149001121520996 0.033045001327991486
          -0.0035379999317228794 -0.072223000228405 0.03993399813771248 -0.0023159999400377274 -0.07276900112628937 0.04118200019001961
          0.00008600000001024455 -0.0776899978518486 0.03974800184369087 -0.0010679999832063913 -0.07412800192832947 0.040957000106573105
          0.0016509999986737967 -0.07856400310993195 0.035287998616695404 0.0012499999720603228 -0.07773199677467346 0.03456899896264076
          -0.000024000000848900527 -0.07556100189685822 0.03223700076341629 -0.002937000012025237 -0.0649930015206337 0.030817000195384026
          -0.0008110000053420663 -0.07283899933099747 0.03221699967980385 -0.001062000053934753 -0.08343800157308578 0.039636000990867615
          -0.0008590000215917826 -0.08048900216817856 0.03959500044584274 -0.0011889999732375145 -0.08117000013589859 0.03977299854159355
          -0.0016060000052675605 -0.08213099837303162 0.039767999202013016 -0.00021800000104121864 -0.08437400311231613 0.040369998663663864
          0.0006060000159777701 -0.08484099805355072 0.03976599872112274 0.003203999949619174 -0.08410199731588364 0.03948599845170975
          0.005057999864220619 -0.0807809978723526 0.04028100147843361 0.0018609999679028988 -0.0851380005478859 0.03950899839401245
          0.0013010000111535192 -0.08508700132369995 0.039799999445676804 0.005336000118404627 -0.07824700325727463 0.039135999977588654
          0.005456999875605106 -0.0791030004620552 0.03885100036859512 0.004821999929845333 -0.08075200021266937 0.03707300126552582
          0.005293000023812056 -0.07788900285959244 0.040437001734972 -0.0063749998807907104 -0.06111299991607666 0.03450100123882294
          -0.00406000018119812 -0.05796699970960617 0.034561000764369965 -0.001879999996162951 -0.050721000880002975 0.032391998916864395
          -0.0014929999597370625 -0.05344599857926369 0.03204699978232384 -0.002334000077098608 -0.05319499969482422 0.03315899893641472
          -0.0037720000836998224 -0.060074999928474426 0.029371000826358795 -0.002982999896630645 -0.0738689973950386 0.04125300049781799