<?xml version="1.0"?>
<VTKFile type="PolyData" version="0.1" byte_order="LittleEndian" header_type="UInt32" compressor="vtkZLibDataCompressor">
  <PolyData>
    <Piece NumberOfPoints="76" NumberOfVerts="0" NumberOfLines="0" NumberOfStrips="0" NumberOfPolys="148">
      <PointData Normals="Normals">
        <DataArray type="Float32" Name="Normals" NumberOfComponents="3" format="ascii" RangeMin="0.9999994418787674" RangeMax="1.0000006060948785">
          -0.7375029921531677 -0.6713550090789795 -0.07328800112009048 -0.4868699908256531 -0.835224986076355 0.25564900040626526
          -0.46790701150894165 -0.8830289840698242 -0.03637700155377388 -0.5877299904823303 -0.7539470195770264 -0.29349300265312195
          -0.25303301215171814 -0.5958139896392822 0.7622209787368774 -0.26001399755477905 -0.5326259732246399 -0.8054199814796448
          -0.3959380090236664 -0.3635909855365753 0.8432289958000183 -0.32572200894355774 -0.6549109816551208 0.6819069981575012
          -0.27412399649620056 -0.16539500653743744 -0.9473649859428406 0.12429700046777725 -0.9804700016975403 -0.15241199731826782
          -0.3793739974498749 -0.9147189855575562 -0.1391579955816269 0.031069999560713768 -0.07938899844884872 0.9963589906692505
          0.1874680072069168 0.17656399309635162 0.9662719964981079 0.13623900711536407 -0.29854699969291687 0.9446210265159607
          0.39052799344062805 -0.5210639834403992 -0.7589340209960938 0.341715008020401 -0.11909099668264389 0.9322280287742615
          0.555171012878418 -0.7285869717597961 0.40118101239204407 -0.33921200037002563 0.14649200439453125 -0.9292340278625488
          -0.38326001167297363 -0.2684530019760132 -0.8837680220603943 -0.11289200186729431 0.42756399512290955 -0.8969079852104187
          0.6462420225143433 -0.11411400139331818 -0.7545520067214966 0.5157690048217773 0.28005799651145935 -0.809660017490387
          0.8341209888458252 -0.49478599429130554 -0.24378199875354767 -0.13681000471115112 -0.8875899910926819 0.43984898924827576
          -0.2498130053281784 -0.28792598843574524 -0.9244949817657471 -0.2739270031452179 -0.6498039960861206 -0.7090269923210144
          0.41616499423980713 0.5515609979629517 0.7229019999504089 0.41696101427078247 0.631542980670929 0.6536800265312195
          0.34602800011634827 0.6173279881477356 0.7065200209617615 0.20819899439811707 0.9760710000991821 -0.06275799870491028
          0.13580499589443207 -0.5368279814720154 0.8326900005340576 0.30552300810813904 0.17121900618076324 0.9366639852523804
          0.8333070278167725 0.11979400366544724 0.5396749973297119 0.9095360040664673 -0.2788250148296356 0.3082219958305359
          -0.17805500328540802 0.6483219861984253 -0.7402529716491699 -0.1732569932937622 0.3095940053462982 -0.9349510073661804
          0.4491640031337738 0.6366069912910461 -0.6268839836120605 0.21048100292682648 0.9157879948616028 -0.3420979976654053
          0.9852679967880249 -0.006053999997675419 -0.17090900242328644 0.8910459876060486 0.4067800045013428 -0.20141300559043884
          -0.00848000030964613 -0.9572240114212036 0.28922298550605774 -0.13753899931907654 -0.8079100251197815 -0.5730310082435608
          0.08560600131750107 0.5537530183792114 -0.8282690048217773 0.5515279769897461 0.8295900225639343 -0.0871649980545044
          0.7315260171890259 0.5878810286521912 0.3453499972820282 0.34526899456977844 0.8717640042304993 0.3475880026817322
          0.1344980001449585 -0.45887699723243713 0.8782610297203064 0.29384899139404297 0.6211469769477844 0.7265179753303528
          0.0964369997382164 -0.004234999883919954 0.9953299760818481 -0.10429999977350235 -0.9818270206451416 -0.15854500234127045
          -0.2909719944000244 -0.919297993183136 0.2650029957294464 -0.2262510061264038 -0.49884000420570374 -0.8366420269012451
          -0.07962100207805634 -0.1419370025396347 -0.9866679906845093 0.16202600300312042 0.7564550042152405 -0.6336579918861389
          0.156017005443573 0.987729012966156 0.007067999802529812 -0.05565899983048439 -0.17235499620437622 0.9834610223770142
          0.012124000117182732 0.6308019757270813 0.7758489847183228 -0.2502500116825104 0.4165480136871338 0.8739920258522034
          -0.2546980082988739 0.08011399954557419 0.9636960029602051 -0.03388499841094017 -0.3189280033111572 0.947172999382019
          -0.8355870246887207 -0.5491769909858704 -0.014124000445008278 -0.9149240255355835 -0.3981890082359314 0.06603600084781647
          -0.03832399845123291 -0.139041006565094 0.9895449876785278 -0.11607299745082855 -0.632860004901886 -0.7655159831047058
          -0.3129569888114929 -0.25700101256370544 0.9143350124359131 -0.002280999906361103 0.08595699816942215 -0.9962959885597229
          -0.2422579973936081 0.757614016532898 -0.6060799956321716 0.07397600263357162 0.9839749932289124 0.16223900020122528
          -0.627403974533081 0.7023680210113525 0.33621999621391296 -0.24815300107002258 0.46901899576187134 0.8476089835166931
          -0.08411800116300583 0.41287800669670105 0.9068940281867981 -0.6308069825172424 0.10144899785518646 0.7692790031433105
          -0.6637979745864868 0.12496799975633621 0.7373980283737183 -0.6423190236091614 0.16244499385356903 0.7490249872207642
          -0.7154800295829773 0.24720799922943115 0.6534339785575867 -0.775530993938446 -0.07182300090789795 -0.6272109746932983
          <InformationKey name="L2_NORM_RANGE" location="vtkDataArray" length="2">
            <Value index="0">
              0.99999944188
            </Value>
            <Value index="1">
              1.0000006061
            </Value>
          </InformationKey>
        </DataArray>
      </PointData>
      <CellData>
      </CellData>
      <Points>
        <DataArray type="Float32" Name="Points" NumberOfComponents="3" format="ascii" RangeMin="0.09300418020116141" RangeMax="0.15802326896565366">
          0.1447950005531311 0.00002700000004551839 -0.028074000030755997 0.14833000302314758 -0.0022279999684542418 -0.0267730001360178
          0.14802299439907074 -0.003700000001117587 -0.029025999829173088 0.14148500561714172 0.0028929999098181725 -0.027130000293254852
          0.14162899553775787 0.0030590000096708536 -0.026440000161528587 0.14868399500846863 -0.0025530001148581505 -0.03067599982023239
          0.14683100581169128 0.0001610000035725534 -0.02559399977326393 0.148389995098114 -0.0023300000466406345 -0.025689000263810158
          0.15126100182533264 0.00030399998649954796 -0.03220999985933304 0.15096700191497803 -0.004004000220447779 -0.028807999566197395
          0.13592299818992615 0.005566000007092953 -0.02499699965119362 0.14872699975967407 0.002807999961078167 -0.025232000276446342
          0.14190299808979034 0.010015999898314476 -0.023989999666810036 0.13323800265789032 0.01027000043541193 -0.021825000643730164
          0.15330299735069275 -0.0005719999899156392 -0.03181900084018707 0.15252399444580078 0.00019700000120792538 -0.025079000741243362
          0.15263399481773376 -0.0030700000934302807 -0.02691200003027916 0.1425199955701828 0.007625000085681677 -0.028905000537633896
          0.13792699575424194 0.006428999826312065 -0.02696800045669079 0.14705699682235718 0.00837399996817112 -0.03060699999332428
          0.15449300408363342 0.0016880000475794077 -0.03171800076961517 0.15400700271129608 0.004133000038564205 -0.031672000885009766
          0.15464000403881073 -0.000003000000106112566 -0.03009600006043911 0.13011200726032257 0.007728000171482563 -0.023264000192284584
          0.13543599843978882 0.007234000135213137 -0.026498999446630478 0.1297609955072403 0.007712999824434519 -0.025483999401330948
          0.1517760008573532 0.007701000198721886 -0.026415999978780746 0.14955399930477142 0.008791999891400337 -0.024808000773191452
          0.13544000685214996 0.012783999554812908 -0.022902999073266983 0.1421699970960617 0.011374000459909439 -0.025743000209331512
          0.11320099979639053 0.013667000457644463 -0.018327999860048294 0.11058899760246277 0.017727000638842583 -0.016540000215172768
          0.15459699928760529 0.0049959998577833176 -0.026649000123143196 0.15435299277305603 -0.0007029999978840351 -0.027442999184131622
          0.1432500034570694 0.009612999856472015 -0.02826800011098385 0.13887900114059448 0.009903999976813793 -0.027403999119997025
          0.15317000448703766 0.006351999938488007 -0.030858999118208885 0.14783300459384918 0.009576000273227692 -0.02927899919450283
          0.1550000011920929 0.0019020000472664833 -0.03070399910211563 0.154681995511055 0.005537000019103289 -0.029210999608039856
          0.11190199851989746 0.011392000131309032 -0.020711999386548996 0.11599300056695938 0.011033999733626842 -0.023883000016212463
          0.12512600421905518 0.01706000044941902 -0.023731999099254608 0.15289700031280518 0.007822999730706215 -0.028526000678539276
          0.15415699779987335 0.0065830000676214695 -0.0269399993121624 0.1036050021648407 0.02368899993598461 -0.018265999853610992
          0.10278499871492386 0.01279900036752224 -0.015216999687254429 0.10316800326108932 0.02194499969482422 -0.015936000272631645
          0.1015940010547638 0.018674999475479126 -0.014037000015377998 0.10996299982070923 0.011194000020623207 -0.022863000631332397
          0.09522300213575363 0.01269300002604723 -0.015111000277101994 0.10470899939537048 0.012938999570906162 -0.024323999881744385
          0.1007310003042221 0.018743999302387238 -0.023872999474406242 0.1013529971241951 0.023817000910639763 -0.021390000358223915
          0.09692200273275375 0.02586499974131584 -0.01822800002992153 0.10080999881029129 0.016993999481201172 -0.014491000212728977
          0.09480900317430496 0.025805000215768814 -0.016752000898122787 0.09708300232887268 0.022197000682353973 -0.014539999887347221
          0.0947289988398552 0.018702000379562378 -0.013900999911129475 0.09845899790525436 0.017317000776529312 -0.014547999948263168
          0.08822900056838989 0.018758999183773994 -0.0226610004901886 0.09315600246191025 0.013968000188469887 -0.01598699949681759
          0.09869299829006195 0.016630999743938446 -0.014682999812066555 0.09260900318622589 0.018637999892234802 -0.023878000676631927
          0.0933300033211708 0.01788800023496151 -0.014529000036418438 0.09292799979448318 0.02031799964606762 -0.02468300051987171
          0.0887250006198883 0.02280700020492077 -0.023514000698924065 0.09467799961566925 0.026041999459266663 -0.017246000468730927
          0.0927169993519783 0.026000000536441803 -0.016932999715209007 0.09509599953889847 0.019509999081492424 -0.01494900044053793
          0.09301699697971344 0.024768000468611717 -0.015584000386297703 0.0961809977889061 0.022897999733686447 -0.015043999999761581
          0.09582299739122391 0.022523000836372375 -0.015675000846385956 0.09630999714136124 0.021707000210881233 -0.014917000196874142
          0.09349799901247025 0.018843999132514 -0.014232000336050987 0.08765300363302231 0.02082199975848198 -0.023905999958515167
          <InformationKey name="L2_NORM_RANGE" location="vtkDataArray" length="2">
            <Value index="0">
              0.093004180201
            </Value>
            <Value index="1">
              0.15802326897
            </Value>
          </InformationKey>
        </DataArray>
      </Points>
      <Verts>
        <DataArray type="Int64" Name="connectivity" format="ascii" RangeMin="1e+299" RangeMax="-1e+299">
        </DataArray>
        <DataArray type="Int64" Name="offsets" format="ascii" RangeMin="1e+299" RangeMax="-1e+299">
        </DataArray>
      </Verts>
      <Lines>
        <DataArray type="Int64" Name="connectivity" format="ascii" RangeMin="1e+299" RangeMax="-1e+299">
        </DataArray>
        <DataArray type="Int64" Name="offsets" format="ascii" RangeMin="1e+299" RangeMax="-1e+299">
        </DataArray>
      </Lines>
      <Strips>
        <DataArray type="Int64" Name="connectivity" format="ascii" RangeMin="1e+299" RangeMax="-1e+299">
        </DataArray>
        <DataArray type="Int64" Name="offsets" format="ascii" RangeMin="1e+299" RangeMax="-1e+299">
        </DataArray>
      </Strips>
      <Polys>
        <DataArray type="Int32" Name="connectivity" format="ascii" RangeMin="0" RangeMax="75">
          2 1 0 0 4 3
          2 0 5 0 7 6
          7 0 1 4 0 6
          5 0 8 0 3 8
          9 7 1 1 2 9
          2 5 9 10 3 4
          3 10 8 6 11 4
          13 4 12 4 13 10
          11 12 4 8 14 5
          9 5 14 7 11 6
          11 7 15 15 7 16
          16 7 9 18 17 8
          19 8 17 14 8 20
          8 19 21 10 18 8
          8 21 20 22 16 9
          22 9 14 10 13 23
          10 24 18 23 25 10
          10 25 24 11 15 26
          11 26 27 27 12 11
          12 29 28 12 27 29
          13 12 28 30 23 13
          31 30 13 28 31 13
          14 20 22 26 15 32
          32 15 33 16 33 15
          22 33 16 19 17 34
          18 35 17 34 17 35
          24 35 18 19 36 21
          36 19 37 37 19 34
          21 38 20 22 20 38
          39 38 21 36 39 21
          22 38 33 41 23 40
          25 23 41 23 30 40
          42 35 24 25 42 24
          25 41 42 26 37 27
          26 43 37 43 26 44
          44 26 32 37 29 27
          28 42 45 42 28 29
          45 31 28 42 29 35
          34 35 29 37 34 29
          46 40 30 46 30 31
          31 45 47 31 48 46
          31 47 48 39 44 32
          38 39 32 32 33 38
          39 36 43 43 36 37
          43 44 39 41 40 49
          49 40 50 50 40 46
          51 41 49 51 42 41
          52 42 51 52 53 42
          42 53 45 47 45 54
          45 53 54 48 55 46
          50 46 55 47 54 56
          57 47 56 57 48 47
          48 57 58 55 48 59
          58 59 48 51 49 50
          61 60 50 62 50 55
          63 52 50 50 60 63
          51 50 52 50 62 64
          64 61 50 53 52 65
          52 63 65 54 53 66
          66 53 65 56 54 67
          68 54 66 68 67 54
          62 55 59 56 67 68
          70 69 56 68 70 56
          71 57 56 72 71 56
          69 72 56 57 71 73
          58 57 69 73 69 57
          64 59 58 74 58 69
          74 64 58 59 64 62
          60 75 63 74 60 61
          74 68 60 60 68 75
          61 64 74 75 65 63
          66 65 75 75 68 66
          68 74 70 72 69 73
          70 74 69 71 72 73
        </DataArray>
        <DataArray type="Int32" Name="offsets" format="ascii" RangeMin="3" RangeMax="444">
          3 6 9 12 15 18
          21 24 27 30 33 36
          39 42 45 48 51 54
          57 60 63 66 69 72
          75 78 81 84 87 90
          93 96 99 102 105 108
          111 114 117 120 123 126
          129 132 135 138 141 144
          147 150 153 156 159 162
          165 168 171 174 177 180
          183 186 189 192 195 198
          201 204 207 210 213 216
          219 222 225 228 231 234
          237 240 243 246 249 252
          255 258 261 264 267 270
          273 276 279 282 285 288
          291 294 297 300 303 306
          309 312 315 318 321 324
          327 330 333 336 339 342
          345 348 351 354 357 360
          363 366 369 372 375 378
          381 384 387 390 393 396
          399 402 405 408 411 414
          417 420 423 426 429 432
          435 438 441 444
        </DataArray>
      </Polys>
    </Piece>
  </PolyData>
</VTKFile>
