<?xml version="1.0"?>
<VTKFile type="PolyData" version="0.1" byte_order="LittleEndian" header_type="UInt32" compressor="vtkZLibDataCompressor">
  <PolyData>
    <Piece NumberOfPoints="87" NumberOfVerts="0" NumberOfLines="0" NumberOfStrips="0" NumberOfPolys="170">
      <PointData Normals="Normals">
        <DataArray type="Float32" Name="Normals" NumberOfComponents="3" format="ascii" RangeMin="0.9999994095629285" RangeMax="1.0000005788375024">
          0.4029400050640106 0.18509800732135773 0.8963140249252319 -0.18012599647045135 0.2663060128688812 0.9469079971313477
          -0.02175699919462204 -0.6827930212020874 0.730288028717041 0.7895069718360901 -0.445376992225647 0.4222770035266876
          0.027811000123620033 0.9082300066947937 0.41754698753356934 0.6369460225105286 0.6124410033226013 0.46820399165153503
          -0.21106800436973572 -0.37999600172042847 0.9005849957466125 -0.12014299631118774 0.9235799908638 0.364096999168396
          -0.22103999555110931 -0.6504030227661133 0.7267159819602966 -0.375016987323761 -0.5678369998931885 0.7327510118484497
          -0.05236300081014633 0.30258500576019287 0.951682984828949 -0.23545800149440765 -0.9159449934959412 0.32496699690818787
          -0.3184100091457367 -0.9322249889373779 -0.17196500301361084 0.10818000137805939 -0.9823709726333618 0.15245799720287323
          0.9301789999008179 -0.36473599076271057 0.04166200011968613 0.9887620210647583 0.14509299397468567 0.036035001277923584
          -0.16519999504089355 0.8567960262298584 -0.4884760081768036 0.5879669785499573 0.7971289753913879 -0.13740499317646027
          0.06121699884533882 0.9779930114746094 -0.19945399463176727 0.23524199426174164 0.9006829857826233 0.36528098583221436
          0.2156910002231598 -0.9707080125808716 0.10584600269794464 0.14653100073337555 -0.6591140031814575 0.7376300096511841
          0.5258600115776062 0.4039210081100464 0.7485449910163879 0.20952199399471283 -0.22492000460624695 0.951583981513977
          -0.26941901445388794 -0.4316590130329132 -0.8608620166778564 0.08562099933624268 -0.5530740022659302 -0.8287209868431091
          -0.22739200294017792 0.04667700082063675 -0.9726840257644653 -0.21515600383281708 -0.20553700625896454 -0.954704999923706
          0.2702850103378296 -0.8872569799423218 -0.37379300594329834 0.7296350002288818 -0.6828830242156982 0.03610299900174141
          0.9983699917793274 -0.012539000250399113 -0.05568299815058708 0.024968000128865242 0.7132300138473511 -0.7004849910736084
          -0.25344499945640564 0.1581369936466217 -0.9543370008468628 0.02910899929702282 0.8326759934425354 -0.5529940128326416
          -0.2936199903488159 0.4297589957714081 -0.8538699746131897 0.6094369888305664 0.5315049886703491 -0.5882940292358398
          0.1406870037317276 0.953436017036438 -0.266772985458374 -0.15182699263095856 0.9699980020523071 0.18987500667572021
          0.1974239945411682 0.6535840034484863 0.7306519746780396 0.30511200428009033 -0.8241620063781738 0.47714200615882874
          0.45728299021720886 -0.690310001373291 0.5606819987297058 0.39149099588394165 -0.8125240206718445 -0.43190300464630127
          0.5003349781036377 -0.046140000224113464 0.8646020293235779 0.6784049868583679 0.01709499955177307 0.7344890236854553
          0.7554190158843994 -0.047651998698711395 0.6535069942474365 0.2929939925670624 -0.048144999891519547 -0.9549009799957275
          0.050220001488924026 0.1624860018491745 -0.9854320287704468 0.08451200276613235 0.029691999778151512 -0.9959800243377686
          0.0954279974102974 0.24081900715827942 -0.9658669829368591 0.06305799633264542 0.08799199759960175 -0.9941229820251465
          0.7306219935417175 -0.5326229929924011 -0.42720499634742737 0.7976719737052917 -0.12255000323057175 -0.5905089974403381
          -0.09264399856328964 0.7154049873352051 -0.6925410032272339 0.13164399564266205 0.20882999897003174 -0.9690510034561157
          -0.2848989963531494 0.9119579792022705 -0.2952370047569275 -0.9382429718971252 0.10040199756622314 0.33108800649642944
          -0.7206670045852661 0.6873530149459839 0.09046900272369385 -0.8363959789276123 0.254381000995636 0.485522985458374
          -0.5007990002632141 0.17011000216007233 0.8486829996109009 0.1461610049009323 -0.02536799944937229 0.9889349937438965
          0.586292028427124 -0.7235959768295288 0.36423999071121216 0.16003599762916565 -0.9336569905281067 -0.3204270005226135
          0.15020599961280823 -0.36650699377059937 -0.9182100296020508 0.12549899518489838 -0.9677129983901978 0.21859200298786163
          0.15532000362873077 -0.6767629981040955 0.7196300029754639 -0.8245480060577393 -0.28516700863838196 -0.4886719882488251
          -0.2613770067691803 0.526423990726471 -0.8090479969978333 -0.25417599081993103 0.3306010067462921 -0.9088990092277527
          -0.4683069884777069 0.04735799878835678 -0.8822960257530212 -0.6153849959373474 0.6045339703559875 -0.505806028842926
          -0.9648270010948181 0.2011599987745285 -0.16924500465393066 -0.9300150275230408 -0.3036479949951172 0.20704799890518188
          -0.8945580124855042 -0.3859339952468872 0.22543400526046753 -0.9912580251693726 -0.07159800082445145 0.11081799864768982
          -0.8197169899940491 -0.3636600077152252 0.4425100088119507 -0.4633199870586395 -0.3454119861125946 0.8161029815673828
          -0.27675899863243103 -0.7583630084991455 -0.5901619791984558 -0.7144929766654968 -0.6980119943618774 -0.04774099960923195
          -0.4462380111217499 -0.8937299847602844 0.04603299871087074 -0.9844610095024109 -0.032600000500679016 0.17255200445652008
          -0.8497499823570251 -0.5118370056152344 0.12628300487995148 -0.987625002861023 0.08232799917459488 0.13349099457263947
          -0.773239016532898 -0.6328290104866028 -0.04036499932408333 -0.8929970264434814 0.13237899541854858 -0.4301539957523346
          -0.693693995475769 0.13298100233078003 -0.7078880071640015 -0.9297530055046082 -0.27343499660491943 0.24656300246715546
          -0.9535099864006042 0.2936969995498657 -0.06754200160503387
          <InformationKey name="L2_NORM_RANGE" location="vtkDataArray" length="2">
            <Value index="0">
              0.99999940956
            </Value>
            <Value index="1">
              1.0000005788
            </Value>
          </InformationKey>
        </DataArray>
      </PointData>
      <CellData>
      </CellData>
      <Points>
        <DataArray type="Float32" Name="Points" NumberOfComponents="3" format="ascii" RangeMin="0.034944295857205813" RangeMax="0.04821315285628143">
          0.039319999516010284 -0.0034890000242739916 -0.020646000280976295 0.03648199886083603 -0.0017740000039339066 -0.02073800005018711
          0.03886900097131729 -0.0037879999727010727 -0.02051199972629547 0.039976999163627625 -0.003524000057950616 -0.021245000883936882
          0.03676600009202957 -0.0005810000002384186 -0.021304000169038773 0.03973900154232979 -0.001095999963581562 -0.022064000368118286
          0.037689000368118286 -0.0029639999847859144 -0.020532000809907913 0.034616999328136444 -0.000881000014487654 -0.022616000846028328
          0.03622199967503548 -0.002759000053629279 -0.021074000746011734 0.03669000044465065 -0.0026519999373704195 -0.02065099962055683
          0.03451399877667427 -0.0022670000325888395 -0.021418999880552292 0.037039998918771744 -0.002867999952286482 -0.021025000140070915
          0.03579099848866463 -0.003702000016346574 -0.02706499956548214 0.038554999977350235 -0.004333000164479017 -0.02406900003552437
          0.039737001061439514 -0.0034030000679194927 -0.024620000272989273 0.0404059998691082 -0.002311999909579754 -0.022199999541044235
          0.03548600152134895 -0.0016580000519752502 -0.026688000187277794 0.039329998195171356 -0.00145800004247576 -0.025225000455975533
          0.031045999377965927 -0.0006189999985508621 -0.02471200004220009 0.03110400028526783 -0.0006820000126026571 -0.02236899919807911
          0.03426399827003479 -0.0038169999606907368 -0.024057000875473022 0.035468000918626785 -0.003068000078201294 -0.021285999566316605
          0.03161900117993355 -0.002119000069797039 -0.020692000165581703 0.03357800096273422 -0.0032470000442117453 -0.021190999075770378
          0.03747899830341339 -0.004635999910533428 -0.0279300007969141 0.03177100047469139 -0.004292000085115433 -0.026364000514149666
          0.03262399882078171 -0.002452000044286251 -0.026527000591158867 0.037133000791072845 -0.004220999777317047 -0.02783999964594841
          0.038217999041080475 -0.00481100007891655 -0.027837000787258148 0.03928700089454651 -0.004433999769389629 -0.02594600059092045
          0.04008600115776062 -0.002891999902203679 -0.026038000360131264 0.032648999243974686 -0.001353000057861209 -0.025995999574661255
          0.0359870009124279 -0.0030239999759942293 -0.02771800011396408 0.03699599951505661 -0.001614999957382679 -0.027403999119997025
          0.03606000170111656 -0.0019399999873712659 -0.027518000453710556 0.03949299827218056 -0.0021379999816417694 -0.02722500078380108
          0.029443999752402306 -0.0007890000124461949 -0.025428999215364456 0.028706999495625496 -0.0003589999978430569 -0.021523000672459602
          0.029881000518798828 -0.0010720000136643648 -0.01975099928677082 0.0342090018093586 -0.003510999958962202 -0.021587999537587166
          0.03253699839115143 -0.00408599991351366 -0.021146999672055244 0.031062999740242958 -0.004470000043511391 -0.02644200064241886
          0.0325700007379055 -0.003452999982982874 -0.020990999415516853 0.03139600157737732 -0.003531999886035919 -0.019399000331759453
          0.032203998416662216 -0.0034799999557435513 -0.02058899961411953 0.03880799934267998 -0.004253999795764685 -0.027838999405503273
          0.03768699988722801 -0.003777999896556139 -0.027657000347971916 0.03125999867916107 -0.0037010000087320805 -0.02639799937605858
          0.032085999846458435 -0.0019499999471008778 -0.02630000002682209 0.03679100051522255 -0.0032339999452233315 -0.027761999517679214
          0.03931799903512001 -0.00420599989593029 -0.02742999978363514 0.03954099863767624 -0.0036200000904500484 -0.027348000556230545
          0.028082000091671944 -0.000818000000435859 -0.0263030007481575 0.0386199988424778 -0.002340999897569418 -0.02762099914252758
          0.027963999658823013 -0.00045200000749900937 -0.02574400044977665 0.02782999910414219 -0.0008040000102482736 -0.021983999758958817
          0.02735700085759163 -0.0005039999959990382 -0.023854000493884087 0.0284620001912117 -0.0015269999857991934 -0.020215999335050583
          0.02931799925863743 -0.00279999990016222 -0.019000999629497528 0.030274000018835068 -0.0038159999530762434 -0.0188790000975132
          0.03187999874353409 -0.004244999960064888 -0.02068600058555603 0.02967900037765503 -0.0055069997906684875 -0.026384999975562096
          0.0292930006980896 -0.00507500022649765 -0.026926999911665916 0.029683999717235565 -0.0053460001945495605 -0.020656999200582504
          0.03065500035881996 -0.004449000116437674 -0.019233999773859978 0.02782999910414219 -0.004277000203728676 -0.027110999450087547
          0.02804199978709221 -0.001310999970883131 -0.02661599963903427 0.027674000710248947 -0.0018649999983608723 -0.026819000020623207
          0.0277670007199049 -0.003409000113606453 -0.02725199982523918 0.027481000870466232 -0.000994000001810491 -0.0258760005235672
          0.027000999078154564 -0.0012870000209659338 -0.025408999994397163 0.02709200046956539 -0.0013000000035390258 -0.024010999128222466
          0.02829599939286709 -0.002365000080317259 -0.023262999951839447 0.028940999880433083 -0.004275000188499689 -0.02295600064098835
          0.028829999268054962 -0.004858000203967094 -0.020375000312924385 0.02933100052177906 -0.0035210000351071358 -0.01897599920630455
          0.028311999514698982 -0.0051020001992583275 -0.026799999177455902 0.028598999604582787 -0.0054870001040399075 -0.026101000607013702
          0.028320999816060066 -0.005530999973416328 -0.0231890007853508 0.02846500091254711 -0.005386000033468008 -0.022161999717354774
          0.027728000655770302 -0.0021569998934865 -0.025312000885605812 0.028832999989390373 -0.00446499977260828 -0.02357099950313568
          0.028080999851226807 -0.005210000090301037 -0.026322999969124794 0.027307000011205673 -0.0016039999900385737 -0.02638999931514263
          0.027627000585198402 -0.0027119999285787344 -0.027024000883102417 0.02873699925839901 -0.0038419999182224274 -0.023250000551342964
          0.028269000351428986 -0.005313000176101923 -0.025005999952554703
          <InformationKey name="L2_NORM_RANGE" location="vtkDataArray" length="2">
            <Value index="0">
              0.034944295857
            </Value>
            <Value index="1">
              0.048213152856
            </Value>
          </InformationKey>
        </DataArray>
      </Points>
      <Verts>
        <DataArray type="Int64" Name="connectivity" format="ascii" RangeMin="1e+299" RangeMax="-1e+299">
        </DataArray>
        <DataArray type="Int64" Name="offsets" format="ascii" RangeMin="1e+299" RangeMax="-1e+299">
        </DataArray>
      </Verts>
      <Lines>
        <DataArray type="Int64" Name="connectivity" format="ascii" RangeMin="1e+299" RangeMax="-1e+299">
        </DataArray>
        <DataArray type="Int64" Name="offsets" format="ascii" RangeMin="1e+299" RangeMax="-1e+299">
        </DataArray>
      </Lines>
      <Strips>
        <DataArray type="Int64" Name="connectivity" format="ascii" RangeMin="1e+299" RangeMax="-1e+299">
        </DataArray>
        <DataArray type="Int64" Name="offsets" format="ascii" RangeMin="1e+299" RangeMax="-1e+299">
        </DataArray>
      </Strips>
      <Polys>
        <DataArray type="Int32" Name="connectivity" format="ascii" RangeMin="0" RangeMax="86">
          0 1 2 2 3 0
          1 0 4 0 5 4
          0 3 5 2 1 6
          1 4 7 1 8 9
          6 1 9 7 10 1
          8 1 10 6 11 2
          2 12 13 2 11 12
          13 3 2 3 13 14
          14 15 3 15 5 3
          16 7 4 16 4 17
          17 4 5 5 15 17
          9 11 6 7 16 18
          7 19 10 18 19 7
          9 8 11 11 8 20
          21 8 10 21 20 8
          10 22 23 19 22 10
          10 23 21 20 12 11
          12 24 13 20 25 12
          25 26 12 27 24 12
          26 27 12 24 28 13
          13 28 29 29 14 13
          30 17 14 15 14 17
          14 29 30 31 16 26
          16 32 26 18 16 31
          16 17 33 16 34 32
          33 34 16 17 35 33
          30 35 17 18 31 36
          19 18 37 18 36 37
          22 19 38 37 38 19
          39 20 21 40 41 20
          41 25 20 20 39 40
          21 23 39 22 42 23
          38 43 22 22 43 44
          22 44 42 23 40 39
          40 23 42 24 45 28
          27 46 24 24 46 45
          47 25 41 25 47 26
          26 47 48 31 26 48
          26 32 27 27 32 49
          27 49 46 29 28 50
          28 45 50 51 30 29
          51 29 50 51 35 30
          36 31 52 52 31 48
          34 53 32 49 32 53
          34 33 53 33 35 53
          51 53 35 54 37 36
          54 36 52 55 37 56
          55 57 37 38 37 57
          37 54 56 38 57 58
          38 59 43 38 58 59
          41 40 60 60 40 44
          44 40 42 41 61 62
          62 47 41 41 60 63
          61 41 63 44 43 60
          64 43 59 64 60 43
          51 50 45 46 53 45
          53 51 45 49 53 46
          65 47 62 48 47 65
          48 66 52 48 67 66
          67 48 68 65 68 48
          54 52 69 69 52 66
          70 56 54 70 54 69
          71 55 56 71 72 55
          73 57 55 72 73 55
          70 71 56 74 57 73
          58 57 74 75 59 58
          75 58 74 64 59 75
          63 60 64 76 62 61
          77 76 61 61 78 77
          78 61 63 65 62 76
          64 74 63 63 79 78
          63 74 79 74 64 75
          80 65 72 65 81 72
          76 82 65 77 65 82
          68 65 83 77 81 65
          83 65 80 66 67 83
          83 69 66 83 67 84
          84 67 68 84 68 83
          70 69 83 80 71 70
          83 80 70 71 80 72
          85 73 72 85 72 81
          74 73 79 81 79 73
          85 81 73 76 77 82
          86 77 78 81 77 86
          78 79 86 81 86 79
        </DataArray>
        <DataArray type="Int32" Name="offsets" format="ascii" RangeMin="3" RangeMax="510">
          3 6 9 12 15 18
          21 24 27 30 33 36
          39 42 45 48 51 54
          57 60 63 66 69 72
          75 78 81 84 87 90
          93 96 99 102 105 108
          111 114 117 120 123 126
          129 132 135 138 141 144
          147 150 153 156 159 162
          165 168 171 174 177 180
          183 186 189 192 195 198
          201 204 207 210 213 216
          219 222 225 228 231 234
          237 240 243 246 249 252
          255 258 261 264 267 270
          273 276 279 282 285 288
          291 294 297 300 303 306
          309 312 315 318 321 324
          327 330 333 336 339 342
          345 348 351 354 357 360
          363 366 369 372 375 378
          381 384 387 390 393 396
          399 402 405 408 411 414
          417 420 423 426 429 432
          435 438 441 444 447 450
          453 456 459 462 465 468
          471 474 477 480 483 486
          489 492 495 498 501 504
          507 510
        </DataArray>
      </Polys>
    </Piece>
  </PolyData>
</VTKFile>
