<?xml version="1.0"?>
<VTKFile type="PolyData" version="0.1" byte_order="LittleEndian" header_type="UInt32" compressor="vtkZLibDataCompressor">
  <PolyData>
    <Piece NumberOfPoints="52" NumberOfVerts="0" NumberOfLines="0" NumberOfStrips="0" NumberOfPolys="100">
      <PointData Normals="Normals">
        <DataArray type="Float32" Name="Normals" NumberOfComponents="3" format="ascii" RangeMin="0.9999994207750846" RangeMax="1.0000005760816928">
          0.30941399931907654 -0.9388539791107178 -0.15105000138282776 0.6320279836654663 -0.3467260003089905 0.6930530071258545
          0.16641899943351746 -0.6047400236129761 0.7788419723510742 0.1900710016489029 0.31134700775146484 0.9310939908027649
          0.9542999863624573 -0.2860960066318512 -0.08637700229883194 0.6106150150299072 0.20838700234889984 -0.7640190124511719
          -0.10238199681043625 0.22821800410747528 -0.9682120084762573 -0.34904199838638306 -0.41480299830436707 -0.8403030037879944
          -0.03010299988090992 -0.6911420226097107 -0.7220919728279114 0.22586899995803833 -0.9741439819335938 0.005160999950021505
          0.37540099024772644 -0.6022809743881226 0.7045080065727234 0.2665019929409027 -0.08143100142478943 0.9603880047798157
          0.18744899332523346 -0.2676889896392822 0.9450950026512146 -0.3698180019855499 -0.1397700011730194 -0.9185310006141663
          0.8851990103721619 0.3606719970703125 0.2938329875469208 0.10383199900388718 0.991599977016449 0.07712999731302261
          0.6193150281906128 0.7661089897155762 0.17183099687099457 -0.18671700358390808 0.7621859908103943 0.619845986366272
          0.08294499665498734 0.6522849798202515 0.7534220218658447 0.43691501021385193 0.6776390075683594 -0.5915330052375793
          -0.3279600143432617 0.473147988319397 -0.8176630139350891 0.05305799841880798 0.316101998090744 -0.9472410082817078
          -0.4001689851284027 0.18985800445079803 -0.8965590000152588 -0.8075010180473328 -0.3897480070590973 -0.44276300072669983
          -0.23285900056362152 -0.9700000286102295 0.0698309987783432 -0.5386260151863098 -0.7057539820671082 -0.46020999550819397
          -0.43525901436805725 -0.5978010296821594 0.6731889843940735 0.14084699749946594 0.05562800168991089 0.9884669780731201
          0.3540160059928894 0.3392300009727478 0.8715479969978333 -0.24636299908161163 0.9682859778404236 -0.04156599938869476
          0.022683000192046165 0.7953940033912659 -0.6056680083274841 0.14256499707698822 0.989300012588501 -0.031000999733805656
          0.23743799328804016 0.9638689756393433 0.12074799835681915 0.3502170145511627 0.502502977848053 0.7904670238494873
          0.06939800083637238 0.9209790229797363 -0.3833810091018677 -0.030798999592661858 0.9076189994812012 -0.41866299510002136
          -0.416577011346817 0.7171630263328552 -0.5586959719657898 -0.32734599709510803 0.08395399898290634 -0.9411680102348328
          -0.9848150014877319 -0.08108499646186829 -0.15350399911403656 -0.9651740193367004 -0.1208529993891716 0.2320210039615631
          -0.9679620265960693 -0.21713900566101074 0.1260959953069687 -0.9891279935836792 0.1389549970626831 0.048149000853300095
          -0.9582939743995667 -0.16295300424098969 0.23477299511432648 -0.6850640177726746 0.193014994263649 0.7024469971656799
          -0.9760199785232544 0.008073000237345695 0.2175319939851761 0.04250999912619591 0.9503099918365479 -0.30838799476623535
          -0.004672999959439039 0.8243870139122009 0.5660079717636108 0.007124000228941441 0.9820740222930908 0.1883630007505417
          -0.7292810082435608 0.6690409779548645 -0.14329500496387482 -0.8414930105209351 0.33863601088523865 0.42096999287605286
          -0.9731990098953247 0.1898149996995926 0.12981900572776794 -0.2525950074195862 0.9637460112571716 0.08596000075340271
          <InformationKey name="L2_NORM_RANGE" location="vtkDataArray" length="2">
            <Value index="0">
              0.99999942078
            </Value>
            <Value index="1">
              1.0000005761
            </Value>
          </InformationKey>
        </DataArray>
      </PointData>
      <CellData>
      </CellData>
      <Points>
        <DataArray type="Float32" Name="Points" NumberOfComponents="3" format="ascii" RangeMin="0.04453647137442641" RangeMax="0.05276736336533376">
          0.007977999746799469 -0.006039999891072512 -0.051523998379707336 0.009544000029563904 -0.002687999978661537 -0.04582900181412697
          0.008887999691069126 -0.002976000076159835 -0.045598000288009644 0.008143000304698944 -0.0026459998916834593 -0.045520998537540436
          0.009328000247478485 -0.004313999786973 -0.05002500116825104 0.008662000298500061 -0.0030690000858157873 -0.05196100100874901
          0.006670000031590462 -0.003700000001117587 -0.05214900150895119 0.005923999939113855 -0.0056119998916983604 -0.05133200064301491
          0.003229999914765358 -0.006238999776542187 -0.04982300102710724 0.0037070000544190407 -0.006295999977737665 -0.04953400045633316
          0.0047969999723136425 -0.0039980001747608185 -0.04492200165987015 0.006895999889820814 -0.0031330001074820757 -0.04540799930691719
          0.007660999894142151 -0.0029899999499320984 -0.04556199908256531 0.006018000189214945 -0.004273000173270702 -0.05195999890565872
          0.009939000010490417 -0.002461999887600541 -0.04623999819159508 0.007333999965339899 0.00013499999477062374 -0.04719400033354759
          0.009201000444591045 -0.0007409999961964786 -0.04806999862194061 0.007267999928444624 -0.0002300000051036477 -0.04684799909591675
          0.005810000002384186 -0.0006040000007487833 -0.04704200103878975 0.008609999902546406 -0.002606000052765012 -0.05138599872589111
          0.006051999982446432 -0.003258999902755022 -0.05183099955320358 0.002616999903693795 -0.0017969999462366104 -0.051715001463890076
          0.005644000135362148 -0.0036379999946802855 -0.05171800032258034 0.0013689999468624592 -0.005034000147134066 -0.0506879985332489
          0.002515000058338046 -0.006748999934643507 -0.04936999827623367 0.0017079999670386314 -0.0059460001066327095 -0.0500359982252121
          0.0031210000161081553 -0.004482000134885311 -0.04472000151872635 0.003533999901264906 -0.0035979999229311943 -0.0442500002682209
          0.004838999826461077 -0.0032279998995363712 -0.04509799927473068 0.006816999986767769 -0.00014400000509340316 -0.047453999519348145
          0.006477000191807747 -0.0018149999668821692 -0.05036599934101105 0.0058109997771680355 -0.00020799999765586108 -0.04802500084042549
          0.0039530000649392605 0.00046800001291558146 -0.047481998801231384 0.003619000082835555 -0.0010189999593421817 -0.04531100019812584
          0.0034370000939816236 0.0003499999875202775 -0.04877899959683418 0.0027199999894946814 0.000037000001611886546 -0.04910999909043312
          0.000754999986384064 -0.0011620000004768372 -0.051389001309871674 0.0008960000122897327 -0.0015269999857991934 -0.05175599828362465
          0.0006290000164881349 -0.0021230001002550125 -0.05146300047636032 0.0013419999741017818 -0.0023529999889433384 -0.049598000943660736
          0.0016449999529868364 -0.005735000129789114 -0.04917199909687042 0.0018560000462457538 -0.0051910001784563065 -0.048572998493909836
          0.0018710000440478325 -0.004513000138103962 -0.047189000993967056 0.0023690001107752323 -0.0016370000084862113 -0.04500599950551987
          0.0021089999936521053 -0.004075999837368727 -0.04570699855685234 0.0021069999784231186 0.0005200000014156103 -0.04826999828219414
          0.0028460000175982714 0.0005239999736659229 -0.04606499895453453 0.0026730000972747803 0.0006639999919570982 -0.047029998153448105
          0.0010239999974146485 -0.00023600000713486224 -0.04958900064229965 0.001373999984934926 0.0003870000073220581 -0.04737300053238869
          0.002302000066265464 -0.003984000068157911 -0.04641300067305565 0.00216299993917346 0.000775999971665442 -0.047237999737262726
          <InformationKey name="L2_NORM_RANGE" location="vtkDataArray" length="2">
            <Value index="0">
              0.044536471374
            </Value>
            <Value index="1">
              0.052767363365
            </Value>
          </InformationKey>
        </DataArray>
      </Points>
      <Verts>
        <DataArray type="Int64" Name="connectivity" format="ascii" RangeMin="1e+299" RangeMax="-1e+299">
        </DataArray>
        <DataArray type="Int64" Name="offsets" format="ascii" RangeMin="1e+299" RangeMax="-1e+299">
        </DataArray>
      </Verts>
      <Lines>
        <DataArray type="Int64" Name="connectivity" format="ascii" RangeMin="1e+299" RangeMax="-1e+299">
        </DataArray>
        <DataArray type="Int64" Name="offsets" format="ascii" RangeMin="1e+299" RangeMax="-1e+299">
        </DataArray>
      </Lines>
      <Strips>
        <DataArray type="Int64" Name="connectivity" format="ascii" RangeMin="1e+299" RangeMax="-1e+299">
        </DataArray>
        <DataArray type="Int64" Name="offsets" format="ascii" RangeMin="1e+299" RangeMax="-1e+299">
        </DataArray>
      </Strips>
      <Polys>
        <DataArray type="Int32" Name="connectivity" format="ascii" RangeMin="0" RangeMax="51">
          0 1 2 0 2 3
          0 4 1 0 5 4
          0 6 5 7 0 8
          9 8 0 10 9 0
          10 0 11 0 12 11
          12 0 3 13 6 0
          0 7 13 3 2 1
          3 1 14 4 14 1
          15 3 16 3 14 16
          3 15 17 18 12 3
          3 17 18 5 19 4
          14 4 19 5 6 19
          20 19 6 20 6 13
          7 8 21 22 13 7
          7 21 22 8 23 21
          8 9 24 8 24 25
          8 25 23 24 9 10
          10 26 24 27 26 10
          10 11 28 28 27 10
          18 11 12 11 18 28
          20 13 22 16 14 19
          15 16 19 17 15 29
          19 30 15 30 29 15
          17 29 31 18 17 31
          18 31 32 32 33 18
          28 18 33 20 30 19
          20 22 30 21 34 30
          21 30 22 35 21 36
          21 35 34 36 21 37
          21 23 37 38 37 23
          38 23 39 23 25 40
          40 41 23 42 39 23
          42 23 41 40 25 24
          40 24 42 26 42 24
          43 26 27 42 26 44
          44 26 43 33 27 28
          43 27 33 30 31 29
          31 30 34 34 32 31
          35 45 32 33 32 46
          32 34 35 32 47 46
          32 45 47 46 43 33
          36 48 35 35 48 45
          38 36 37 48 36 38
          38 39 48 49 48 39
          42 49 39 41 40 42
          50 49 42 50 42 44
          44 43 50 49 50 43
          46 49 43 45 51 47
          45 48 51 49 46 47
          47 51 49 51 48 49
        </DataArray>
        <DataArray type="Int32" Name="offsets" format="ascii" RangeMin="3" RangeMax="300">
          3 6 9 12 15 18
          21 24 27 30 33 36
          39 42 45 48 51 54
          57 60 63 66 69 72
          75 78 81 84 87 90
          93 96 99 102 105 108
          111 114 117 120 123 126
          129 132 135 138 141 144
          147 150 153 156 159 162
          165 168 171 174 177 180
          183 186 189 192 195 198
          201 204 207 210 213 216
          219 222 225 228 231 234
          237 240 243 246 249 252
          255 258 261 264 267 270
          273 276 279 282 285 288
          291 294 297 300
        </DataArray>
      </Polys>
    </Piece>
  </PolyData>
</VTKFile>
