<?xml version="1.0"?>
<VTKFile type="PolyData" version="0.1" byte_order="LittleEndian" header_type="UInt32" compressor="vtkZLibDataCompressor">
  <PolyData>
    <Piece NumberOfPoints="142" NumberOfVerts="0" NumberOfLines="0" NumberOfStrips="0" NumberOfPolys="280">
      <PointData Normals="Normals">
        <DataArray type="Float32" Name="Normals" NumberOfComponents="3" format="ascii" RangeMin="0.9999994291336649" RangeMax="1.0000007630238559">
          -0.010569999925792217 -0.891635000705719 -0.45263200998306274 -0.1714330017566681 -0.9293400049209595 -0.3270139992237091
          -0.07752200216054916 -0.9967569708824158 0.021606000140309334 -0.14436499774456024 -0.9848179817199707 0.09639599919319153
          -0.23579399287700653 -0.8124679923057556 -0.5331950187683105 -0.06159700080752373 -0.8096910119056702 -0.5836150050163269
          0.1011430025100708 -0.9501940011978149 -0.2947919964790344 0.009790999814867973 -0.7894570231437683 -0.6137279868125916
          0.16152000427246094 -0.986810028553009 0.010847999714314938 -0.14667099714279175 -0.8968510031700134 0.4173080027103424
          0.20144100487232208 -0.9558330178260803 0.21401900053024292 -0.11514399945735931 -0.9811570048332214 -0.1551540046930313
          -0.2120320051908493 -0.7489680051803589 0.6277649998664856 -0.21792900562286377 -0.8973180055618286 0.38383200764656067
          -0.33415400981903076 -0.6624410152435303 -0.6704570055007935 -0.1445389986038208 -0.7704970240592957 -0.6208400130271912
          -0.40657898783683777 -0.5080900192260742 -0.7593010067939758 0.31248798966407776 -0.430400013923645 -0.8468220233917236
          0.04294300079345703 0.29743799567222595 -0.9537749886512756 0.7785900235176086 -0.6256129741668701 -0.04906100034713745
          0.8760390281677246 -0.1909710019826889 -0.44281700253486633 0.3215720057487488 -0.7257329821586609 -0.6081969738006592
          0.3684000074863434 0.1586489975452423 -0.916031002998352 0.5312010049819946 -0.3396590054035187 -0.7761809825897217
          0.2991339862346649 -0.7168059945106506 -0.62984699010849 -0.010087000206112862 0.11900299787521362 -0.992842972278595
          0.4366399943828583 -0.6352810263633728 0.6369950175285339 -0.08270499855279922 -0.8080539703369141 0.5832740068435669
          -0.26935499906539917 -0.7395430207252502 0.6168659925460815 -0.4322809875011444 -0.7356070280075073 0.5215510129928589
          0.7441669702529907 -0.18183399736881256 0.6427689790725708 0.8810070157051086 -0.3359900116920471 0.3330720067024231
          0.3337849974632263 -0.8505129814147949 -0.406466007232666 -0.02546199969947338 -0.9996659755706787 -0.0043669999577105045
          -0.1398009955883026 -0.9608709812164307 0.23912900686264038 -0.39172500371932983 -0.6688799858093262 0.6317840218544006
          -0.11219000071287155 -0.6734989881515503 0.7306249737739563 -0.05448000133037567 -0.49774500727653503 0.8656110167503357
          -0.05102299898862839 -0.4721440076828003 0.8800439834594727 -0.6438300013542175 0.23348499834537506 -0.7286760210990906
          -0.49980801343917847 -0.4757770001888275 -0.7237600088119507 -0.5416179895401001 0.7277100086212158 -0.4208180010318756
          0.4497550129890442 -0.4587799906730652 -0.7663159966468811 0.6156190037727356 0.0015719999792054296 -0.7880420088768005
          0.5309879779815674 0.7113100290298462 -0.4605329930782318 0.04778299853205681 0.9210690259933472 -0.38645699620246887
          0.785161018371582 0.6038770079612732 0.13731099665164948 0.6416190266609192 -0.36624500155448914 -0.6739360094070435
          0.6208699941635132 0.7492489814758301 -0.23053500056266785 0.3056960105895996 0.6393160223960876 -0.7055670022964478
          0.4144130051136017 0.838129997253418 -0.3546830117702484 0.24808800220489502 0.8893539905548096 -0.38405901193618774
          -0.3002929985523224 0.8998379707336426 -0.31640899181365967 0.4100069999694824 -0.27857598662376404 0.8684989809989929
          0.6699249744415283 0.6209480166435242 0.40696901082992554 0.7525529861450195 0.31362399458885193 0.5790550112724304
          0.04091000184416771 -0.36244699358940125 0.9311059713363647 -0.45658600330352783 -0.7941979765892029 0.40097299218177795
          -0.1511480063199997 -0.25337499380111694 0.9554870128631592 0.49537500739097595 -0.5968419909477234 -0.6311759948730469
          0.572920024394989 -0.31172698736190796 -0.7580170035362244 0.1860480010509491 -0.827314019203186 -0.5300359725952148
          -0.06566999852657318 -0.9750210046768188 -0.2121810019016266 -0.3564490079879761 -0.9135479927062988 -0.1958940029144287
          -0.9640740156173706 -0.2607879936695099 -0.05049699917435646 -0.12566600739955902 -0.7814419865608215 0.6111930012702942
          -0.03645100072026253 -0.7761099934577942 0.6295430064201355 -0.9142940044403076 -0.26325300335884094 0.30783799290657043
          -0.8762789964675903 -0.2915070056915283 0.3836129903793335 -0.9557510018348694 -0.2935349941253662 -0.019437000155448914
          -0.4918319880962372 0.3645170032978058 0.7907140254974365 -0.018400000408291817 0.026870999485254288 0.9994699954986572
          0.044870998710393906 -0.31372401118278503 0.9484530091285706 0.18167400360107422 0.5063089728355408 0.8429980278015137
          0.225163996219635 0.27932900190353394 0.9334220290184021 -0.22232599556446075 0.9742040038108826 -0.03871000185608864
          0.5882729887962341 0.3923279941082001 -0.7071160078048706 0.5458869934082031 0.8334130048751831 -0.08620200306177139
          0.5142589807510376 0.8131380081176758 0.2726610004901886 0.35682499408721924 0.8473330140113831 -0.3933219909667969
          0.10906500369310379 0.9906089901924133 0.08245900273323059 0.38196098804473877 0.7105759978294373 0.5909209847450256
          0.15289999544620514 0.9854739904403687 0.07391200214624405 -0.794730007648468 -0.24384599924087524 0.5558270215988159
          0.0091559998691082 0.34973999857902527 0.9368020296096802 0.20183999836444855 -0.371986985206604 -0.9060279726982117
          0.1690250039100647 0.21943600475788116 -0.9608740210533142 -0.44773098826408386 -0.6972029805183411 -0.5598620176315308
          -0.24329200387001038 -0.593330979347229 -0.7673119902610779 -0.810375988483429 -0.36370399594306946 -0.45935800671577454
          -0.9356030225753784 0.1734369993209839 -0.3075160086154938 -0.8686259984970093 -0.024594999849796295 -0.4948579967021942
          -0.7548630237579346 0.6538789868354797 -0.05122099816799164 -0.7385969758033752 0.6613019704818726 0.1309719979763031
          -0.815172016620636 0.5771679878234863 -0.048700001090765 0.06784100085496902 -0.37470799684524536 0.9246569871902466
          -0.7578859925270081 -0.46138399839401245 0.461230993270874 -0.8383219838142395 -0.3270319998264313 0.4361949861049652
          -0.9498479962348938 0.3125790059566498 -0.009123999625444412 -0.37568899989128113 0.9265829920768738 -0.017345000058412552
          -0.02394700050354004 0.7994639873504639 0.6002359986305237 -0.29679998755455017 0.9512550234794617 0.08381099998950958
          0.40158799290657043 0.4066320061683655 0.8205959796905518 0.4641619920730591 0.2610839903354645 0.8463979959487915
          0.3559330105781555 0.7501170039176941 0.5573469996452332 0.04793599992990494 0.7026489973068237 -0.7099199891090393
          0.391061007976532 0.8680840134620667 0.3057810068130493 0.21298299729824066 0.9770389795303345 -0.005700999870896339
          0.10847699642181396 0.987159013748169 -0.11726299673318863 -0.7040219902992249 0.65276700258255 -0.2797279953956604
          -0.32144901156425476 0.09738899767398834 -0.9419050216674805 -0.5379859805107117 -0.13222399353981018 -0.832518994808197
          -0.7988280057907104 0.3113119900226593 -0.5147420167922974 -0.9216110110282898 -0.013779999688267708 -0.38787001371383667
          -0.889240026473999 0.4418739974498749 -0.11831799894571304 -0.8890269994735718 0.4528070092201233 -0.06780800223350525
          -0.9669589996337891 0.24071000516414642 -0.08395999670028687 -0.9048060178756714 0.35945600271224976 -0.22829300165176392
          -0.7324259877204895 -0.08639000356197357 0.6753439903259277 -0.056779999285936356 0.11286400258541107 0.9919869899749756
          0.2497899979352951 0.11455100029706955 0.9614999890327454 -0.9905329942703247 0.13489000499248505 -0.025474000722169876
          -0.9529520273208618 0.032885000109672546 -0.3013310134410858 0.4206550121307373 0.4858289957046509 0.7661730051040649
          -0.6166110038757324 0.5722969770431519 -0.5406180024147034 0.050390999764204025 0.6262170076370239 0.7780190110206604
          -0.3231140077114105 0.9354810118675232 0.14308400452136993 -0.29339900612831116 0.9526330232620239 -0.0800430029630661
          -0.27420899271965027 0.9544439911842346 -0.11767400056123734 -0.9572209715843201 0.2351830005645752 -0.1685750037431717
          -0.9998959898948669 -0.0058479998260736465 -0.013176999986171722 -0.980521023273468 -0.1696610003709793 -0.09895899891853333
          -0.964559018611908 0.030695000663399696 -0.2620759904384613 -0.9317790269851685 0.23112399876117706 -0.2799449861049652
          -0.9506400227546692 -0.2899189889431 -0.11059200018644333 -0.9948740005493164 0.10025099664926529 0.013260000385344028
          -0.6994640231132507 0.591463029384613 0.4011499881744385 -0.9030100107192993 0.4076879918575287 -0.13551099598407745
          -0.950780987739563 -0.20356200635433197 -0.23361800611019135 -0.2901889979839325 0.7270489931106567 0.6222460269927979
          -0.4583120048046112 0.846517026424408 0.2708500027656555 -0.9735720157623291 0.18773899972438812 -0.13004200160503387
          <InformationKey name="L2_NORM_RANGE" location="vtkDataArray" length="2">
            <Value index="0">
              0.99999942913
            </Value>
            <Value index="1">
              1.000000763
            </Value>
          </InformationKey>
        </DataArray>
      </PointData>
      <CellData>
      </CellData>
      <Points>
        <DataArray type="Float32" Name="Points" NumberOfComponents="3" format="ascii" RangeMin="0.1701282165091769" RangeMax="0.18226481588240823">
          0.05899300053715706 -0.17026400566101074 0.009820000268518925 0.060256000608205795 -0.1702529937028885 0.01005799975246191
          0.061452001333236694 -0.17077100276947021 0.012174000032246113 0.057861000299453735 -0.17077699303627014 0.012484000064432621
          0.058681000024080276 -0.16942599415779114 0.009074999950826168 0.05709100142121315 -0.1702290028333664 0.010258999653160572
          0.06159200146794319 -0.17076900601387024 0.010243000462651253 0.0606129989027977 -0.17005500197410583 0.0087890001013875
          0.062247999012470245 -0.17090199887752533 0.011753999628126621 0.058003999292850494 -0.17059199512004852 0.013044999912381172
          0.06241400167346001 -0.17059700191020966 0.013365999795496464 0.051141999661922455 -0.1693509966135025 0.010324999690055847
          0.056758999824523926 -0.1702679991722107 0.012984000146389008 0.05449499934911728 -0.16976499557495117 0.012684999965131283
          0.057645998895168304 -0.16843099892139435 0.007842999882996082 0.05714799836277962 -0.16863200068473816 0.008724000304937363
          0.05676800012588501 -0.16830700635910034 0.008340000174939632 0.053677998483181 -0.16829100251197815 0.00810800027102232
          0.05575399845838547 -0.16851499676704407 0.008471000008285046 0.06336700171232224 -0.17038600146770477 0.011962000280618668
          0.062950000166893 -0.1701039969921112 0.01015899982303381 0.062077999114990234 -0.1701200008392334 0.009631999768316746
          0.0598829984664917 -0.1685599982738495 0.007644999772310257 0.06194499880075455 -0.16947700083255768 0.00880299974232912
          0.061802998185157776 -0.16982899606227875 0.009246000088751316 0.05776999890804291 -0.16783100366592407 0.0074339997954666615
          0.061868999153375626 -0.17038099467754364 0.014310999773442745 0.06083099916577339 -0.16996300220489502 0.01497699972242117
          0.05902799963951111 -0.1694979965686798 0.015193000435829163 0.05695800110697746 -0.1689939945936203 0.014266000129282475
          0.06266099959611893 -0.17027199268341064 0.013931999914348125 0.06316500157117844 -0.17036199569702148 0.01296900026500225
          0.04991000145673752 -0.1680939942598343 0.006320000160485506 0.04707000032067299 -0.16872699558734894 0.008464000187814236
          0.05098700150847435 -0.16924400627613068 0.012005000375211239 0.056464001536369324 -0.16863100230693817 0.014217999763786793
          0.055247001349925995 -0.169172003865242 0.013774000108242035 0.056033000349998474 -0.16899000108242035 0.014001999981701374
          0.05291400104761124 -0.1684499979019165 0.014275999739766121 0.05725099891424179 -0.16773200035095215 0.007586999796330929
          0.05682399868965149 -0.16776999831199646 0.007846999913454056 0.05655299872159958 -0.16791799664497375 0.008899999782443047
          0.05050399899482727 -0.16740800440311432 0.006006999872624874 0.05176100134849548 -0.16718000173568726 0.006767000071704388
          0.05390600115060806 -0.167153000831604 0.008830999955534935 0.05589799955487251 -0.16790400445461273 0.009196000173687935
          0.06306400150060654 -0.1698250025510788 0.012450999580323696 0.0626479983329773 -0.16990800201892853 0.00964100006967783
          0.0615679994225502 -0.1686519980430603 0.008880999870598316 0.059101998805999756 -0.16790999472141266 0.007734999991953373
          0.059783998876810074 -0.16791200637817383 0.008186999708414078 0.05811399966478348 -0.16735200583934784 0.007987000048160553
          0.057367999106645584 -0.1672399938106537 0.007925000041723251 0.06128700077533722 -0.1697929948568344 0.015204999595880508
          0.06173599883913994 -0.16934700310230255 0.0143630001693964 0.06137099862098694 -0.16928599774837494 0.015053999610245228
          0.05987799912691116 -0.169063001871109 0.01576700061559677 0.056373000144958496 -0.16833999752998352 0.015052000060677528
          0.058490000665187836 -0.16858099400997162 0.015789000317454338 0.04960000142455101 -0.1677899956703186 0.005568999797105789
          0.05001499876379967 -0.16721099615097046 0.005541999824345112 0.04807300120592117 -0.1685599982738495 0.005526999942958355
          0.047589998692274094 -0.16881999373435974 0.006304999813437462 0.04613799974322319 -0.16872799396514893 0.0073449998162686825
          0.04466500133275986 -0.1684039980173111 0.00979399960488081 0.051017001271247864 -0.1686059981584549 0.013538000173866749
          0.04881900176405907 -0.1682409942150116 0.013679999858140945 0.04483800008893013 -0.16838400065898895 0.012032000347971916
          0.04575299844145775 -0.16797800362110138 0.0136329997330904 0.05594300106167793 -0.1680230051279068 0.014570999890565872
          0.05581099912524223 -0.16835300624370575 0.014210999943315983 0.055084001272916794 -0.16860100626945496 0.014124000445008278
          0.050411999225616455 -0.16737399995326996 0.014340999536216259 0.054712001234292984 -0.1681949943304062 0.01398400031030178
          0.05315300077199936 -0.16772599518299103 0.014193999581038952 0.05694099888205528 -0.1676730066537857 0.009615999646484852
          0.04910700023174286 -0.16489100456237793 0.00495600001886487 0.04956600069999695 -0.16356100142002106 0.008379999548196793
          0.054308000952005386 -0.167385995388031 0.01285600010305643 0.0486610010266304 -0.16368399560451508 0.006378000136464834
          0.05617399886250496 -0.16757400333881378 0.011532999575138092 0.060006000101566315 -0.1685509979724884 0.015591000206768513
          0.058476999402046204 -0.1676969975233078 0.01191799994558096 0.05575300008058548 -0.16803400218486786 0.015189000405371189
          0.05704300105571747 -0.16808199882507324 0.015604999847710133 0.04791700094938278 -0.16727599501609802 0.004267999902367592
          0.048271000385284424 -0.16575300693511963 0.004116999916732311 0.04699600115418434 -0.16813300549983978 0.005247999913990498
          0.04766499996185303 -0.16785399615764618 0.004639000166207552 0.04641500115394592 -0.1683720052242279 0.00636299978941679
          0.04506799951195717 -0.16844099760055542 0.008702999912202358 0.04559699818491936 -0.16841499507427216 0.007596000097692013
          0.04681200161576271 -0.16677699983119965 0.010173999704420567 0.045086998492479324 -0.16810299456119537 0.011626999825239182
          0.04597700014710426 -0.16729700565338135 0.013213999569416046 0.04742899909615517 -0.16627199947834015 0.015530000440776348
          0.04600000008940697 -0.16708800196647644 0.014897000044584274 0.045935001224279404 -0.16756799817085266 0.014353999868035316
          0.045823998749256134 -0.16741999983787537 0.013736000284552574 0.05644499883055687 -0.16739599406719208 0.015104999765753746
          0.05534899979829788 -0.16801400482654572 0.01372000016272068 0.05648300051689148 -0.16779400408267975 0.013767999596893787
          0.052319999784231186 -0.1666090041399002 0.01420500036329031 0.051336999982595444 -0.166020005941391 0.014395000413060188
          0.05419100075960159 -0.16771200299263 0.013593999668955803 0.04863300174474716 -0.16470099985599518 0.004856000188738108
          0.04910600185394287 -0.16334199905395508 0.014058000408113003 0.04892199859023094 -0.16328899562358856 0.00922400038689375
          0.04902099817991257 -0.16325999796390533 0.008369999937713146 0.047630999237298965 -0.16381800174713135 0.0062049999833106995
          0.04755600169301033 -0.16626399755477905 0.004240000154823065 0.04730699956417084 -0.1669439971446991 0.004288999829441309
          0.0474650003015995 -0.16538099944591522 0.004569999873638153 0.04687799885869026 -0.1672939956188202 0.004896000027656555
          0.04734800010919571 -0.16628000140190125 0.008652999997138977 0.04714199900627136 -0.16637399792671204 0.010753000155091286
          0.04732099920511246 -0.16557499766349792 0.01016400009393692 0.04613199830055237 -0.16695399582386017 0.013628999702632427
          0.045566000044345856 -0.1655150055885315 0.015386000275611877 0.046925999224185944 -0.16539700329303741 0.01571499928832054
          0.04879000037908554 -0.16486799716949463 0.015405000187456608 0.0460209995508194 -0.16701699793338776 0.014255000278353691
          0.045715998858213425 -0.16498799622058868 0.01487400010228157 0.048966001719236374 -0.16418899595737457 0.015123999677598476
          0.0474729984998703 -0.16479000449180603 0.005028000101447105 0.04830799996852875 -0.16391000151634216 0.015169999562203884
          0.04737100005149841 -0.16305500268936157 0.013748000375926495 0.04724400117993355 -0.16307300329208374 0.010900000110268593
          0.04737100005149841 -0.16321200132369995 0.010001000016927719 0.04709500074386597 -0.16349400579929352 0.008768999949097633
          0.047690000385046005 -0.1646990031003952 0.007953999564051628 0.04765100032091141 -0.1646140068769455 0.009046000428497791
          0.04758000001311302 -0.16504399478435516 0.0096859997138381 0.04715200141072273 -0.1653680056333542 0.012365000322461128
          0.0472479984164238 -0.16418400406837463 0.009995000436902046 0.047547001391649246 -0.16500599682331085 0.010828999802470207
          0.045820001512765884 -0.16449399292469025 0.015181999653577805 0.04634200036525726 -0.1637129932641983 0.01368900015950203
          0.04744499921798706 -0.1646289974451065 0.011784999631345272 0.04632499814033508 -0.16404299437999725 0.014986000023782253
          0.046925000846385956 -0.1633410006761551 0.014240999706089497 0.04696200042963028 -0.16350600123405457 0.010081999935209751
          <InformationKey name="L2_NORM_RANGE" location="vtkDataArray" length="2">
            <Value index="0">
              0.17012821651
            </Value>
            <Value index="1">
              0.18226481588
            </Value>
          </InformationKey>
        </DataArray>
      </Points>
      <Verts>
        <DataArray type="Int64" Name="connectivity" format="ascii" RangeMin="1e+299" RangeMax="-1e+299">
        </DataArray>
        <DataArray type="Int64" Name="offsets" format="ascii" RangeMin="1e+299" RangeMax="-1e+299">
        </DataArray>
      </Verts>
      <Lines>
        <DataArray type="Int64" Name="connectivity" format="ascii" RangeMin="1e+299" RangeMax="-1e+299">
        </DataArray>
        <DataArray type="Int64" Name="offsets" format="ascii" RangeMin="1e+299" RangeMax="-1e+299">
        </DataArray>
      </Lines>
      <Strips>
        <DataArray type="Int64" Name="connectivity" format="ascii" RangeMin="1e+299" RangeMax="-1e+299">
        </DataArray>
        <DataArray type="Int64" Name="offsets" format="ascii" RangeMin="1e+299" RangeMax="-1e+299">
        </DataArray>
      </Strips>
      <Polys>
        <DataArray type="Int32" Name="connectivity" format="ascii" RangeMin="0" RangeMax="141">
          0 1 2 0 2 3
          0 4 1 5 0 3
          5 4 0 2 1 6
          1 4 7 1 7 6
          2 6 8 2 9 3
          2 10 9 10 2 8
          5 3 11 3 9 12
          3 12 13 11 3 13
          7 4 14 15 4 5
          4 16 14 4 15 16
          17 5 11 18 5 17
          5 16 15 5 18 16
          8 6 19 19 6 20
          6 7 21 6 21 20
          7 22 23 24 7 23
          22 7 25 25 7 14
          21 7 24 8 19 10
          9 26 27 9 27 28
          29 9 28 29 12 9
          9 10 26 30 10 31
          26 10 30 31 10 19
          32 17 11 33 32 11
          11 13 34 33 11 34
          35 12 29 36 13 12
          12 35 37 12 37 36
          38 34 13 13 36 38
          14 39 25 14 40 39
          16 40 14 16 39 40
          39 16 41 18 41 16
          17 32 42 17 42 43
          44 17 43 18 17 44
          45 18 44 18 45 41
          46 19 20 46 31 19
          20 21 47 48 46 20
          48 20 47 47 21 24
          48 23 22 22 25 49
          50 48 22 49 50 22
          47 24 23 47 23 48
          49 25 51 39 52 25
          51 25 52 26 53 27
          30 54 26 54 55 26
          26 55 53 27 53 56
          27 56 28 28 57 29
          56 58 28 58 57 28
          35 29 57 46 30 31
          30 46 54 32 59 60
          61 59 32 60 42 32
          62 61 32 33 62 32
          62 33 63 33 34 64
          63 33 64 34 38 65
          34 65 66 34 67 64
          34 68 67 34 66 68
          69 70 35 35 57 69
          37 35 70 71 36 37
          71 38 36 71 37 70
          72 65 38 73 38 71
          74 72 38 73 74 38
          52 39 41 52 41 75
          45 75 41 60 43 42
          44 43 76 76 43 60
          44 77 78 79 44 76
          79 77 44 44 80 45
          44 78 80 75 45 80
          54 46 48 81 54 48
          48 50 82 81 48 82
          51 50 49 82 50 51
          82 51 52 52 75 82
          53 81 56 81 53 55
          54 81 55 81 58 56
          83 57 84 58 84 57
          69 57 83 84 58 81
          60 59 85 85 59 61
          60 85 86 60 86 76
          61 87 88 87 61 62
          61 88 85 89 62 63
          89 87 62 64 90 63
          63 91 89 90 91 63
          64 92 90 64 67 93
          94 64 93 64 94 92
          72 66 65 95 96 66
          66 97 68 66 96 97
          95 66 72 67 68 93
          94 93 68 98 94 68
          97 98 68 99 70 69
          69 83 99 70 100 71
          100 70 101 99 101 70
          73 71 100 72 74 102
          103 95 72 102 103 72
          104 74 73 100 104 73
          74 104 102 80 82 75
          105 79 76 86 105 76
          78 77 106 107 106 77
          108 107 77 79 108 77
          78 102 104 78 103 102
          103 78 106 80 78 104
          109 108 79 79 105 109
          82 80 101 100 101 80
          104 100 80 81 82 84
          82 99 84 101 99 82
          84 99 83 110 86 85
          85 111 110 111 85 88
          112 86 110 86 112 105
          113 88 87 87 89 113
          113 111 88 114 113 89
          114 89 91 114 91 90
          90 92 114 94 115 92
          116 114 92 116 92 115
          117 94 98 94 117 115
          95 118 96 119 118 95
          95 103 120 119 95 120
          97 96 121 122 121 96
          122 96 118 98 97 121
          98 121 117 120 103 123
          103 106 123 105 124 109
          105 112 124 123 106 125
          126 125 106 106 127 126
          127 106 107 108 128 107
          127 107 128 129 108 109
          128 108 129 112 109 124
          130 109 112 129 109 130
          111 112 110 111 113 112
          112 113 130 114 130 113
          131 114 132 114 131 130
          116 132 114 117 133 115
          133 116 115 116 134 132
          135 134 116 116 133 135
          122 117 121 117 122 133
          118 136 122 118 119 136
          119 120 125 119 125 136
          125 120 123 136 137 122
          122 137 138 133 122 138
          139 136 125 125 140 139
          126 140 125 140 126 136
          136 126 137 137 126 127
          127 141 137 128 141 127
          128 129 141 130 131 129
          129 131 134 129 134 141
          132 134 131 133 138 135
          138 141 134 135 138 134
          136 139 140 137 141 138
        </DataArray>
        <DataArray type="Int32" Name="offsets" format="ascii" RangeMin="3" RangeMax="840">
          3 6 9 12 15 18
          21 24 27 30 33 36
          39 42 45 48 51 54
          57 60 63 66 69 72
          75 78 81 84 87 90
          93 96 99 102 105 108
          111 114 117 120 123 126
          129 132 135 138 141 144
          147 150 153 156 159 162
          165 168 171 174 177 180
          183 186 189 192 195 198
          201 204 207 210 213 216
          219 222 225 228 231 234
          237 240 243 246 249 252
          255 258 261 264 267 270
          273 276 279 282 285 288
          291 294 297 300 303 306
          309 312 315 318 321 324
          327 330 333 336 339 342
          345 348 351 354 357 360
          363 366 369 372 375 378
          381 384 387 390 393 396
          399 402 405 408 411 414
          417 420 423 426 429 432
          435 438 441 444 447 450
          453 456 459 462 465 468
          471 474 477 480 483 486
          489 492 495 498 501 504
          507 510 513 516 519 522
          525 528 531 534 537 540
          543 546 549 552 555 558
          561 564 567 570 573 576
          579 582 585 588 591 594
          597 600 603 606 609 612
          615 618 621 624 627 630
          633 636 639 642 645 648
          651 654 657 660 663 666
          669 672 675 678 681 684
          687 690 693 696 699 702
          705 708 711 714 717 720
          723 726 729 732 735 738
          741 744 747 750 753 756
          759 762 765 768 771 774
          777 780 783 786 789 792
          795 798 801 804 807 810
          813 816 819 822 825 828
          831 834 837 840
        </DataArray>
      </Polys>
    </Piece>
  </PolyData>
</VTKFile>
