<?xml version="1.0"?>
<VTKFile type="PolyData" version="0.1" byte_order="LittleEndian" header_type="UInt32" compressor="vtkZLibDataCompressor">
  <PolyData>
    <Piece NumberOfPoints="235" NumberOfVerts="0" NumberOfLines="0" NumberOfStrips="0" NumberOfPolys="466">
      <PointData Normals="Normals">
        <DataArray type="Float32" Name="Normals" NumberOfComponents="3" format="ascii" RangeMin="0.9999993614229767" RangeMax="1.0000006333213778">
          0.33291199803352356 -0.2646929919719696 0.9050459861755371 0.28728699684143066 -0.4154190123081207 0.8630719780921936
          0.2943800091743469 -0.09350600093603134 0.9511029720306396 0.62779700756073 0.15184199810028076 0.7634230256080627
          0.6009119749069214 -0.5187559723854065 0.6081089973449707 0.14150799810886383 -0.37957000732421875 0.9142770171165466
          0.21294400095939636 -0.432233989238739 0.8762580156326294 0.5613449811935425 -0.4773100018501282 0.6760669946670532
          0.04804300144314766 -0.494269996881485 0.8679800033569336 0.36091798543930054 -0.4979090094566345 0.7885590195655823
          -0.08637700229883194 -0.13092100620269775 0.9876229763031006 -0.045924000442028046 0.15444399416446686 0.9869340062141418
          0.3104090094566345 0.20837800204753876 0.9274830222129822 0.5849109888076782 0.4551509916782379 0.6713550090789795
          0.7344290018081665 0.24100999534130096 0.6344509720802307 0.6095759868621826 0.4361020028591156 0.6619910001754761
          0.6770750284194946 0.36861100792884827 0.6369420289993286 0.9607399702072144 -0.13411399722099304 0.24288199841976166
          0.8092389702796936 -0.520117998123169 0.27314698696136475 0.31181800365448 0.367590993642807 0.8761540055274963
          0.33812299370765686 0.557174026966095 0.7584390044212341 0.4624769985675812 0.3340980112552643 0.8212760090827942
          0.7093639969825745 -0.7047619819641113 -0.01069399993866682 0.6733199954032898 -0.7307279706001282 0.11258900165557861
          0.31678199768066406 -0.6386680006980896 0.7012500166893005 0.43164101243019104 -0.5208420157432556 0.7364839911460876
          0.009724999777972698 -0.46334001421928406 0.8861269950866699 -0.02863899990916252 -0.2251330018043518 0.9739069938659668
          0.08560200035572052 -0.623000979423523 0.7775229811668396 0.2545349895954132 -0.8153790235519409 0.5199699997901917
          -0.7360180020332336 -0.19811299443244934 0.6473240256309509 -0.7276170253753662 0.3496829867362976 0.5901650190353394
          -0.14228500425815582 0.73545902967453 0.66246098279953 -0.2131730020046234 -0.3082669973373413 0.9271079897880554
          0.5780240297317505 0.5739989876747131 0.5800120234489441 0.5767679810523987 0.5338159799575806 0.6183680295944214
          0.9334520101547241 0.11708399653434753 0.33905598521232605 0.788686990737915 0.33595800399780273 0.5148829817771912
          0.42684298753738403 0.7475119829177856 0.5089499950408936 0.7003639936447144 0.46678999066352844 0.5399979948997498
          0.704509973526001 -0.7032899856567383 -0.09512799978256226 0.9644060134887695 0.1695529967546463 0.20291200280189514
          0.9796839952468872 0.20015199482440948 -0.012587999925017357 0.8971909880638123 -0.32722800970077515 -0.29659900069236755
          0.2714180052280426 0.8156960010528564 0.5108540058135986 0.6842039823532104 -0.7288720011711121 -0.024689000099897385
          0.6783419847488403 -0.7333030104637146 -0.04603800177574158 0.6659359931945801 -0.7453699707984924 -0.03087100014090538
          -0.20263400673866272 -0.6182960271835327 0.7593740224838257 -0.009759999811649323 -0.41492098569869995 0.9098049998283386
          -0.22852200269699097 -0.9501069784164429 0.21230700612068176 -0.58719801902771 -0.7222679853439331 0.36541399359703064
          -0.038033001124858856 -0.9930070042610168 -0.11176499724388123 -0.5974230170249939 -0.4620560109615326 0.6554309725761414
          -0.9417129755020142 -0.13346000015735626 0.3088110089302063 -0.8337669968605042 -0.4055419862270355 0.37465700507164
          -0.9148179888725281 -0.3531160056591034 0.19600200653076172 -0.9155160188674927 -0.3037010133266449 0.2638089954853058
          -0.5530949831008911 0.7892280220985413 0.2668429911136627 -0.8333050012588501 0.5487499833106995 0.06690099835395813
          -0.9934290051460266 0.0941540002822876 0.0650700032711029 -0.9668949842453003 0.05649999901652336 0.24884100258350372
          0.16655899584293365 0.928417980670929 0.33211299777030945 -0.48537200689315796 0.8166549801826477 0.31223198771476746
          -0.572513997554779 0.794717013835907 0.2016250044107437 0.8046169877052307 0.4293519854545593 0.4101809859275818
          0.7756140232086182 0.6220149993896484 0.10732799768447876 0.43898099660873413 0.8244850039482117 0.3571000099182129
          0.9590910077095032 0.20345500111579895 0.19685199856758118 0.3677150011062622 0.8952680230140686 0.25155800580978394
          0.4807330071926117 0.8049830198287964 0.3477039933204651 0.38374999165534973 -0.9032920002937317 -0.19182999432086945
          0.6538289785385132 -0.7561320066452026 -0.027783000841736794 0.6050879955291748 -0.708791971206665 -0.3626050055027008
          0.8221120238304138 0.5349540114402771 -0.19482499361038208 0.9598389863967896 0.2071170061826706 -0.18924200534820557
          0.8546350002288818 -0.2329619973897934 -0.46403399109840393 0.6090229749679565 -0.3960689902305603 -0.6871830224990845
          0.5942260026931763 -0.6108360290527344 -0.523235023021698 0.8931779861450195 0.3840230107307434 -0.23400799930095673
          0.8898149728775024 -0.04597700014710426 -0.45399901270866394 0.43227601051330566 -0.893979012966156 -0.11806400120258331
          -0.4710719883441925 -0.5839149951934814 0.6611610054969788 -0.6915109753608704 -0.7154930233955383 -0.09940599650144577
          -0.8273900151252747 -0.47246798872947693 0.3036450147628784 -0.7432770133018494 -0.4857630133628845 0.45997101068496704
          -0.8899049758911133 -0.45357999205589294 0.048301998525857925 -0.8704370260238647 -0.4824259877204895 -0.09799999743700027
          -0.48585399985313416 -0.8490570187568665 0.20747900009155273 -0.7366060018539429 -0.6738569736480713 -0.05768800154328346
          -0.22649699449539185 -0.9471499919891357 -0.22716699540615082 -0.030515000224113464 -0.9964650273323059 -0.07827000319957733
          -0.9252910017967224 -0.31044599413871765 0.21785199642181396 -0.9624459743499756 -0.18029600381851196 0.20295600593090057
          -0.9307469725608826 -0.35867899656295776 0.07113300263881683 -0.9198629856109619 -0.38384899497032166 0.08069899678230286
          -0.7358189821243286 0.6728929877281189 -0.07605999708175659 -0.9290000200271606 0.3663719892501831 0.05225500091910362
          0.4946649968624115 0.8690379858016968 0.008857999928295612 0.48419201374053955 0.867995023727417 0.11019899696111679
          -0.23960399627685547 0.9472950100898743 0.21265600621700287 -0.6740800142288208 0.7065330147743225 0.21547099947929382
          -0.7938650250434875 0.5871850252151489 0.15808799862861633 -0.7943969964981079 0.6038060188293457 0.06596600264310837
          -0.6496390104293823 0.752357006072998 0.10921800136566162 -0.7711179852485657 0.6359999775886536 -0.02967200055718422
          0.8237230181694031 0.5079939961433411 -0.2518399953842163 0.5321230292320251 0.8464570045471191 0.018864000216126442
          0.4709250032901764 -0.8740410208702087 -0.11951000243425369 0.6256449818611145 -0.66423499584198 -0.40909600257873535
          0.5141459703445435 -0.6985840201377869 -0.49762800335884094 0.5814160108566284 -0.6238539814949036 -0.5222650170326233
          0.5514140129089355 -0.6747720241546631 -0.4905349910259247 0.7511360049247742 0.6414650082588196 -0.1559399962425232
          0.8499370217323303 -0.039788998663425446 -0.5253790020942688 0.42952799797058105 -0.36901599168777466 -0.8242160081863403
          0.5144010186195374 -0.37951400876045227 -0.7689989805221558 0.552718997001648 -0.4663360118865967 -0.6906750202178955
          0.5336639881134033 -0.5186520218849182 -0.6679840087890625 0.305061012506485 -0.13598500192165375 -0.9425740242004395
          0.3681420087814331 -0.27850401401519775 -0.8870779871940613 0.6837679743766785 -0.05152900144457817 -0.7278779745101929
          0.5182999968528748 -0.5732340216636658 -0.6346399784088135 0.77674400806427 0.617467999458313 -0.12410400062799454
          0.7669090032577515 0.6215789914131165 -0.15965799987316132 0.8976929783821106 0.23942400515079498 -0.3698959946632385
          0.8166450262069702 0.5107960104942322 -0.2686620056629181 0.8585469722747803 0.4807319939136505 -0.17830799520015717
          0.8264600038528442 0.346998006105423 -0.4433459937572479 -0.8126310110092163 -0.5725970268249512 0.10846299678087234
          -0.8833100199699402 -0.4587259888648987 -0.09661799669265747 -0.48298099637031555 -0.7973009943962097 0.36199501156806946
          -0.4938510060310364 -0.7560349702835083 0.42956000566482544 -0.21932299435138702 -0.9186540246009827 0.3285900056362152
          0.29305300116539 -0.932843029499054 0.20958200097084045 -0.7741119861602783 -0.5458009839057922 0.32070600986480713
          -0.8195800185203552 -0.3456000089645386 0.4570010006427765 -0.9516410231590271 -0.14733999967575073 0.26957300305366516
          -0.9246699810028076 0.13855800032615662 0.35466599464416504 -0.9732069969177246 0.22443099319934845 -0.04998600110411644
          -0.9511240124702454 0.3084009885787964 -0.015900999307632446 -0.9317700266838074 0.3518660068511963 0.08941099792718887
          -0.9509729743003845 0.30461499094963074 -0.053477998822927475 -0.9090309739112854 0.4101890027523041 -0.07353699952363968
          -0.8947510123252869 0.3996489942073822 0.19925299286842346 -0.8799340128898621 0.3870449960231781 0.27552300691604614
          -0.8171259760856628 0.42327800393104553 0.3913320004940033 -0.8502219915390015 0.38122400641441345 0.36302998661994934
          -0.7808449864387512 0.4589090049266815 0.42389100790023804 0.7921350002288818 0.5731880068778992 -0.20970800518989563
          0.3392939865589142 0.9266790151596069 -0.16169500350952148 0.16400200128555298 0.9850509762763977 -0.05270799994468689
          -0.5025950074195862 0.8523839712142944 0.14435799419879913 -0.7602819800376892 0.6495280265808105 0.009192000143229961
          0.8705559968948364 0.42277300357818604 -0.251785010099411 0.4188069999217987 -0.8728359937667847 -0.25051599740982056
          0.5162100195884705 -0.8508939743041992 0.09749899804592133 0.4673919975757599 -0.8840339779853821 0.0053820000030100346
          0.3366599977016449 -0.7254449725151062 -0.6003239750862122 0.4007500112056732 -0.8045910000801086 -0.4382149875164032
          0.7479169964790344 0.3977710008621216 -0.5314120054244995 0.4452750086784363 -0.2703379988670349 -0.853609025478363
          0.5894240140914917 -0.4442009925842285 -0.6747329831123352 0.5231530070304871 -0.2955999970436096 -0.7993320226669312
          0.13953499495983124 -0.4624269902706146 -0.8756089806556702 0.2465980052947998 -0.5471439957618713 -0.7998890280723572
          0.2676669955253601 0.4982439875602722 -0.8246859908103943 0.12034399807453156 0.2694909870624542 -0.9554539918899536
          0.26093000173568726 -0.03344599902629852 -0.9647780060768127 0.8564490079879761 0.4730829894542694 -0.20660999417304993
          0.6484150290489197 0.68088299036026 -0.34052398800849915 0.909824013710022 0.2972550094127655 -0.28958699107170105
          0.9086139798164368 0.31638699769973755 -0.27261701226234436 -0.5435590147972107 -0.7410079836845398 0.39427199959754944
          -0.14624300599098206 -0.8995090126991272 0.4117000102996826 -0.07061900198459625 -0.8599290251731873 0.5055059790611267
          -0.3199180066585541 -0.7838180065155029 0.5322420001029968 0.08209899812936783 -0.9777910113334656 0.19283099472522736
          -0.5270950198173523 -0.6777629852294922 0.5126479864120483 -0.7179170250892639 -0.49826300144195557 0.4861370027065277
          -0.5684499740600586 -0.650842010974884 0.503259003162384 -0.922881007194519 -0.14365899562835693 0.3572849929332733
          -0.9566490054130554 -0.09855800122022629 0.2740600109100342 -0.8769069910049438 -0.17193399369716644 0.44885700941085815
          -0.934918999671936 -0.09302099794149399 0.3424519896507263 -0.9396269917488098 0.1746159940958023 0.294295996427536
          -0.6621959805488586 0.7436050176620483 0.09245099872350693 -0.8128629922866821 0.5112349987030029 0.27909401059150696
          -0.8195610046386719 0.45072999596595764 0.3537839949131012 -0.7919759750366211 0.5822299718856812 0.18380099534988403
          -0.8167570233345032 0.4369660019874573 0.376787006855011 -0.7758060097694397 0.48874399065971375 0.3990670144557953
          -0.7750920057296753 0.47958698868751526 0.4113749861717224 -0.8048020005226135 0.4514699876308441 0.38531699776649475
          0.2946780025959015 0.8705940246582031 -0.3939949870109558 -0.01375999953597784 0.9519169926643372 -0.3060469925403595
          -0.10858000069856644 0.9861879944801331 -0.1250779926776886 0.029928000643849373 -0.9193170070648193 -0.3923789858818054
          -0.033980999141931534 -0.9503710269927979 -0.30925801396369934 0.13973599672317505 -0.9871780276298523 -0.07716000080108643
          -0.5268290042877197 -0.5843750238418579 -0.617218017578125 -0.6360250115394592 -0.7158380150794983 -0.28818199038505554
          0.2834149897098541 -0.01606000028550625 -0.9588630199432373 0.3283349871635437 0.16436100006103516 -0.9301509857177734
          0.1378760039806366 -0.3315880000591278 -0.9332950115203857 -0.30886098742485046 -0.4924519956111908 -0.8136929869651794
          -0.22143299877643585 -0.37666600942611694 -0.8994939923286438 0.18663400411605835 0.8301190137863159 -0.5254240036010742
          -0.4315600097179413 0.8061670064926147 -0.40478599071502686 0.009236999787390232 0.5341730117797852 -0.8453249931335449
          -0.01451599970459938 0.3995150029659271 -0.9166120290756226 0.07068900018930435 0.3376289904117584 -0.9386209845542908
          -0.03429500013589859 0.5009559988975525 -0.8647930026054382 0.04349000006914139 -0.9166079759597778 0.3974139988422394
          -0.5319780111312866 -0.7827749848365784 0.3228980004787445 -0.29894399642944336 -0.9456610083580017 -0.12790000438690186
          -0.8805739879608154 -0.43060100078582764 0.1979220062494278 -0.9752020239830017 -0.19862200319766998 0.09762199968099594
          -0.9993339776992798 -0.031814999878406525 0.017854999750852585 -0.9965190291404724 0.08111099898815155 0.019238999113440514
          -0.8817449808120728 0.38527101278305054 0.27219998836517334 -0.9748299717903137 -0.22289399802684784 0.004997000098228455
          -0.9902200102806091 -0.13940100371837616 0.005702999886125326 -0.7960090041160583 0.5463560223579407 0.26050901412963867
          -0.8328480124473572 0.4560689926147461 0.313632994890213 -0.6893730163574219 -0.32303500175476074 -0.6483929753303528
          -0.9075289964675903 -0.21097299456596375 -0.3631550073623657 -0.9278389811515808 -0.3165839910507202 -0.19720299541950226
          -0.4775620102882385 0.04121499881148338 -0.8776310086250305 -0.7646790146827698 0.5941669940948486 -0.2494630068540573
          0.056612998247146606 0.39046698808670044 -0.918874979019165 -0.9556139707565308 -0.19063499569892883 -0.22463299334049225
          -0.9645649790763855 0.19283699989318848 -0.18007999658584595 -0.9657769799232483 -0.25857698917388916 -0.020326999947428703
          -0.9690899848937988 -0.24523299932479858 -0.026948999613523483
          <InformationKey name="L2_NORM_RANGE" location="vtkDataArray" length="2">
            <Value index="0">
              0.99999936142
            </Value>
            <Value index="1">
              1.0000006333
            </Value>
          </InformationKey>
        </DataArray>
      </PointData>
      <CellData>
      </CellData>
      <Points>
        <DataArray type="Float32" Name="Points" NumberOfComponents="3" format="ascii" RangeMin="0.07524157198481232" RangeMax="0.09998500726518167">
          0.0845009982585907 0.02295600064098835 0.03599200025200844 0.08278399705886841 0.023010000586509705 0.03627400100231171
          0.0834909975528717 0.02505600079894066 0.036851998418569565 0.08620700240135193 0.026402000337839127 0.03532100096344948
          0.08531200140714645 0.020824000239372253 0.03494099900126457 0.08363399654626846 0.021105000749230385 0.03541899845004082
          0.08128099888563156 0.021932000294327736 0.036706000566482544 0.08164999634027481 0.02165300026535988 0.036173999309539795
          0.08260300010442734 0.02011300064623356 0.03508700057864189 0.08168599754571915 0.02011599950492382 0.03510800004005432
          0.08085200190544128 0.023329000920057297 0.03700700029730797 0.07944899797439575 0.028240999206900597 0.037004999816417694
          0.08350399881601334 0.0267379991710186 0.036559998989105225 0.08798299729824066 0.03138799965381622 0.03133000060915947
          0.08883500099182129 0.030848000198602676 0.031000999733805656 0.08672100305557251 0.0322830006480217 0.03210499882698059
          0.08727599680423737 0.03183700144290924 0.03171699866652489 0.09127800166606903 0.028852000832557678 0.026910999789834023
          0.0865819975733757 0.021784000098705292 0.033976998180150986 0.08364199846982956 0.028181999921798706 0.036107998341321945
          0.08503899723291397 0.030981000512838364 0.034212999045848846 0.08482299745082855 0.029366999864578247 0.03503600135445595
          0.08511800318956375 0.02048099972307682 0.03282900154590607 0.08424100279808044 0.019387999549508095 0.03360600024461746
          0.0841199979186058 0.019794000312685966 0.0347680002450943 0.08128300309181213 0.02041799947619438 0.035652000457048416
          0.08010999858379364 0.02069699950516224 0.035989999771118164 0.08013000339269638 0.02267099916934967 0.03666900098323822
          0.0807029977440834 0.01978899911046028 0.035291001200675964 0.08222000300884247 0.017812000587582588 0.03319999948143959
          0.0767349973320961 0.02595899999141693 0.03650100156664848 0.07563400268554688 0.02984200045466423 0.03519099950790405
          0.07795400172472 0.030949000269174576 0.035711001604795456 0.07871600240468979 0.02295600064098835 0.03699899837374687
          0.08848699927330017 0.032951001077890396 0.029596999287605286 0.08933000266551971 0.03242800012230873 0.029298000037670135
          0.09023699909448624 0.03136900067329407 0.028913000598549843 0.09014099836349487 0.03185499832034111 0.02900099940598011
          0.08734899759292603 0.033959001302719116 0.030141999945044518 0.08798500150442123 0.03340199962258339 0.029934000223875046
          0.08482400327920914 0.020287999883294106 0.02472200058400631 0.09079200029373169 0.031286001205444336 0.026611000299453735
          0.09116800129413605 0.031366001814603806 0.024508999660611153 0.09071200340986252 0.028140999376773834 0.022084999829530716
          0.0859529972076416 0.03591100126504898 0.027884000912308693 0.08347299695014954 0.01897599920630455 0.029154999181628227
          0.08385100215673447 0.019202999770641327 0.03145499899983406 0.08371400088071823 0.019262000918388367 0.02751000039279461
          0.07992800325155258 0.020215999335050583 0.03567799925804138 0.07946199923753738 0.02181899920105934 0.036538999527692795
          0.08113999664783478 0.01734899915754795 0.031957998871803284 0.07918400317430496 0.019039999693632126 0.03400300070643425
          0.0812859982252121 0.01714400015771389 0.029621999710798264 0.0786060020327568 0.02201100066304207 0.03629999980330467
          0.07532799988985062 0.0288309995085001 0.03466099873185158 0.07785800099372864 0.02245499938726425 0.03550399839878082
          0.07667499780654907 0.024947000667452812 0.03543800115585327 0.0761910006403923 0.026095999404788017 0.03540100157260895
          0.07621199637651443 0.0314750000834465 0.03296399861574173 0.07522699981927872 0.03053699992597103 0.033608000725507736
          0.07498200237751007 0.029652999714016914 0.03321399912238121 0.0751190036535263 0.029397999867796898 0.03396400064229965
          0.08430200070142746 0.037783000618219376 0.02553199976682663 0.0789719969034195 0.034205999225378036 0.029802000150084496
          0.07725200057029724 0.03241200000047684 0.032134998589754105 0.09011299908161163 0.03340400010347366 0.02758299931883812
          0.08994200080633163 0.03482099995017052 0.026141999289393425 0.08905500173568726 0.03524300083518028 0.025812000036239624
          0.09056299924850464 0.031950000673532486 0.027298999950289726 0.08832500129938126 0.03551900014281273 0.025536999106407166
          0.08745899796485901 0.035096000880002975 0.027504999190568924 0.08284900337457657 0.018547000363469124 0.023979999125003815
          0.08409599959850311 0.019682999700307846 0.025861000642180443 0.08149400353431702 0.021462999284267426 0.014654000289738178
          0.09047900140285492 0.032311998307704926 0.022856999188661575 0.09074299782514572 0.0314829982817173 0.022254999727010727
          0.08535200357437134 0.031039999797940254 0.009839000180363655 0.08387699723243713 0.02848299965262413 0.008617999963462353
          0.0836540013551712 0.024706000462174416 0.01145000010728836 0.08967000246047974 0.03199300169944763 0.017830999568104744
          0.08671300113201141 0.03327000141143799 0.01143100019544363 0.08247800171375275 0.018118999898433685 0.025793999433517456
          0.07914900034666061 0.02046399936079979 0.03553200140595436 0.08048699796199799 0.017486000433564186 0.03003299981355667
          0.07856199890375137 0.02013299986720085 0.03445599973201752 0.07853099703788757 0.02107900008559227 0.03547399863600731
          0.07800000160932541 0.020563999190926552 0.03290000185370445 0.07845599949359894 0.01996999979019165 0.031300000846385956
          0.07891000062227249 0.019070999696850777 0.026386000216007233 0.08019199967384338 0.018207000568509102 0.028988000005483627
          0.0810139998793602 0.018404999747872353 0.025913000106811523 0.07949600368738174 0.01904899999499321 0.02537599951028824
          0.07572799921035767 0.027031000703573227 0.03476100042462349 0.07521899789571762 0.024261999875307083 0.027984000742435455
          0.07719100266695023 0.023027999326586723 0.03390499949455261 0.07695599645376205 0.024157999083399773 0.03402800112962723
          0.0764089971780777 0.0316459983587265 0.03193100169301033 0.0775810033082962 0.028919000178575516 0.02097499929368496
          0.08679000288248062 0.03742700070142746 0.019648000597953796 0.0881349965929985 0.035801999270915985 0.02399500086903572
          0.08018399775028229 0.039250001311302185 0.019231000915169716 0.08028499782085419 0.03878000006079674 0.02098900079727173
          0.0794219970703125 0.03645399957895279 0.025702999904751778 0.07841800153255463 0.033918000757694244 0.028548000380396843
          0.07796800136566162 0.03325600177049637 0.030717000365257263 0.07720799744129181 0.03246600180864334 0.03139699995517731
          0.08933199942111969 0.03342499956488609 0.02218100056052208 0.08893200010061264 0.03548499941825867 0.024555999785661697
          0.0807500034570694 0.01936200074851513 0.01959099993109703 0.07795900106430054 0.01830900087952614 0.014479000121355057
          0.07782399654388428 0.020831000059843063 0.010848999954760075 0.07802499830722809 0.01940999925136566 0.013074000366032124
          0.0779310017824173 0.02015100046992302 0.012186000123620033 0.08972399681806564 0.03260999917984009 0.021067000925540924
          0.0852700024843216 0.03283499926328659 0.008914999663829803 0.07778800278902054 0.02827800065279007 0.005373000167310238
          0.07622399926185608 0.02617499977350235 0.005497000180184841 0.07673700153827667 0.024460000917315483 0.007009999826550484
          0.07731600105762482 0.02285500057041645 0.00861200038343668 0.0814250037074089 0.03195999935269356 0.005625999998301268
          0.07948800176382065 0.03029800020158291 0.0053519997745752335 0.08352600038051605 0.03300200030207634 0.006328999996185303
          0.07812199741601944 0.02195199951529503 0.010001000016927719 0.0875839963555336 0.034745000302791595 0.016321999952197075
          0.08696900308132172 0.034984998404979706 0.01420500036329031 0.08769600093364716 0.03354400023818016 0.013683999888598919
          0.0872649997472763 0.03440399840474129 0.013430999591946602 0.08818899840116501 0.03429599851369858 0.019657999277114868
          0.08645699918270111 0.03417300060391426 0.011281000450253487 0.07819800078868866 0.020925000309944153 0.029044000431895256
          0.07821500301361084 0.020766999572515488 0.03032599948346615 0.07775700092315674 0.018862999975681305 0.024136999621987343
          0.07743100076913834 0.02057100087404251 0.02631399966776371 0.07765699923038483 0.01812100037932396 0.021712999790906906
          0.07854899764060974 0.0178849995136261 0.02142000012099743 0.07728199660778046 0.022267000749707222 0.02938999980688095
          0.07542199641466141 0.02263600006699562 0.027281999588012695 0.07501400262117386 0.02213199995458126 0.025477999821305275
          0.073853999376297 0.023017000406980515 0.021243000403046608 0.07934200018644333 0.03618700057268143 0.02298099920153618
          0.07904600352048874 0.03539400175213814 0.02485099993646145 0.07979899644851685 0.03783100098371506 0.021084999665617943
          0.07869700342416763 0.034511998295784 0.026335999369621277 0.07832299917936325 0.033642999827861786 0.027744000777602196
          0.07969799637794495 0.03830600157380104 0.01948999986052513 0.07946400344371796 0.03862300142645836 0.01797099970281124
          0.07532499730587006 0.035677000880241394 0.010869000107049942 0.0773169994354248 0.037668000906705856 0.013043999671936035
          0.07188700139522552 0.03028400056064129 0.009971999563276768 0.08708000183105469 0.036979999393224716 0.018933000043034554
          0.08209399878978729 0.03923499956727028 0.015999000519514084 0.08099199831485748 0.039487000554800034 0.016673000529408455
          0.0799110010266304 0.03958100080490112 0.01746699959039688 0.07787799835205078 0.033257998526096344 0.03000899963080883
          0.0887949988245964 0.03377699851989746 0.020934000611305237 0.07806699723005295 0.017335999757051468 0.016462000086903572
          0.07878100126981735 0.017743999138474464 0.019533000886440277 0.07814300060272217 0.017253000289201736 0.018207000568509102
          0.07467100024223328 0.020759999752044678 0.007892999798059464 0.07713499665260315 0.017992999404668808 0.013895999640226364
          0.08501800149679184 0.03376400098204613 0.008740000426769257 0.07603999972343445 0.027813000604510307 0.004707000218331814
          0.07538200169801712 0.023854000493884087 0.006053999997675419 0.07475200295448303 0.027481000870466232 0.003959000110626221
          0.07370100170373917 0.025617999956011772 0.004013000056147575 0.07420500367879868 0.023538999259471893 0.005359000060707331
          0.08307600021362305 0.03348600119352341 0.006068000104278326 0.07878199964761734 0.03097599931061268 0.005177000071853399
          0.07923799753189087 0.030741000548005104 0.0052269999869167805 0.08683999627828598 0.03573400154709816 0.01669600047171116
          0.08536600321531296 0.03626000136137009 0.012609999626874924 0.08764500170946121 0.035691000521183014 0.019394999369978905
          0.08692300319671631 0.03633899986743927 0.017619000747799873 0.07742399722337723 0.021391000598669052 0.027884000912308693
          0.07662799954414368 0.01843000017106533 0.02191000059247017 0.07597199827432632 0.019631000235676765 0.024421000853180885
          0.076384998857975 0.020997000858187675 0.02639099955558777 0.07716800272464752 0.01697699911892414 0.01899999938905239
          0.07637099921703339 0.021918000653386116 0.027897000312805176 0.07540600001811981 0.021407999098300934 0.0263030007481575
          0.07458499819040298 0.018616000190377235 0.022561000660061836 0.07405199855566025 0.01931699924170971 0.0208979994058609
          0.07429099828004837 0.018843999132514 0.021771999076008797 0.07290499657392502 0.018953999504446983 0.01858600042760372
          0.07197699695825577 0.02034199982881546 0.01720600016415119 0.0712440013885498 0.02428700029850006 0.014511999674141407
          0.07732799649238586 0.03850800171494484 0.012112000025808811 0.07508400082588196 0.03621299937367439 0.009704000316560268
          0.07457400113344193 0.034869998693466187 0.010147999972105026 0.07617399841547012 0.03737099841237068 0.01079300045967102
          0.07113999873399734 0.03022100031375885 0.008875999599695206 0.07183100283145905 0.031192999333143234 0.008945999667048454
          0.07265699654817581 0.03285299986600876 0.008534999564290047 0.07375700026750565 0.03402699902653694 0.009339000098407269
          0.08050599694252014 0.0385110005736351 0.012823999859392643 0.07788299769163132 0.03860799968242645 0.0114139998331666
          0.07922700047492981 0.03925799950957298 0.014638000167906284 0.07643900066614151 0.017954999580979347 0.013633999973535538
          0.0754690021276474 0.017210999503731728 0.015461999922990799 0.07722000032663345 0.016964999958872795 0.017424000427126884
          0.07232499867677689 0.023559000343084335 0.0059460001066327095 0.07237400114536285 0.01883300021290779 0.013753999955952168
          0.07361000031232834 0.028720999136567116 0.002822000067681074 0.07589899748563766 0.02979700081050396 0.004075999837368727
          0.07361999899148941 0.02736400067806244 0.0032939999364316463 0.07287000119686127 0.02546199969947338 0.004275999963283539
          0.0728669986128807 0.027222000062465668 0.0034229999873787165 0.07834500074386597 0.03811800107359886 0.010592999868094921
          0.0752979964017868 0.03646399825811386 0.008572000078856945 0.0800120010972023 0.03383199870586395 0.006419000215828419