<?xml version="1.0"?>
<VTKFile type="PolyData" version="0.1" byte_order="LittleEndian" header_type="UInt32" compressor="vtkZLibDataCompressor">
  <PolyData>
    <Piece NumberOfPoints="72" NumberOfVerts="0" NumberOfLines="0" NumberOfStrips="0" NumberOfPolys="80">
      <PointData Normals="Normals">
        <DataArray type="Float32" Name="Normals" NumberOfComponents="3" format="ascii" RangeMin="0.9999994292986726" RangeMax="1.0000007461209839">
          0.4939880073070526 0.8593710064888 -0.13212700188159943 -0.010377000086009502 0.9464349746704102 -0.3227280080318451
          0.1959179937839508 0.9806039929389954 0.005723999813199043 0.6587979793548584 0.6349310278892517 -0.40354299545288086
          -0.2038320004940033 0.6770099997520447 -0.7071840167045593 0.6056979894638062 0.7955489754676819 0.015230000019073486
          0.7952690124511719 0.6011840105056763 -0.0782570019364357 -0.5704349875450134 0.8153650164604187 -0.09891699999570847
          -0.9562180042266846 0.2908659875392914 -0.032304998487234116 0.611536979675293 0.790926992893219 -0.021378999575972557
          0.5322440266609192 0.843953013420105 0.0667869970202446 0.007726000156253576 0.9711340069770813 0.23840799927711487
          -0.612060010433197 0.7859560251235962 0.0874980017542839 -0.767333984375 0.6387739777565002 -0.0562720000743866
          -0.7463930249214172 0.6613410115242004 0.07432900369167328 0.7844880223274231 0.1092899963259697 -0.6104369759559631
          -0.2323630005121231 0.0484360009431839 -0.971422016620636 0.9774069786071777 0.13879600167274475 -0.1594109982252121
          -0.998714029788971 -0.004972999915480614 -0.05046200007200241 0.7982410192489624 0.6018589735031128 0.02402999997138977
          0.9849709868431091 0.1267949938774109 0.1172809973359108 -0.9793800115585327 0.003616000059992075 0.20199599862098694
          -0.9732289910316467 -0.06100500002503395 0.22159400582313538 0.6747419834136963 0.6930239796638489 0.2538520097732544
          -0.2005700021982193 0.8064429759979248 0.5562570095062256 -0.9724040031433105 0.23266400396823883 0.017260000109672546
          -0.9802849888801575 -0.07997100055217743 -0.1806820034980774 0.6706759929656982 -0.25140100717544556 -0.6978470087051392
          -0.06554599851369858 -0.46614599227905273 -0.8822759985923767 0.9609249830245972 -0.1465809941291809 -0.2348109930753708
          -0.8958209753036499 -0.2642329931259155 -0.3573310077190399 0.9550889730453491 -0.22606000304222107 0.19157999753952026
          -0.989326000213623 0.1445389986038208 0.018502000719308853 0.8293499946594238 0.14395800232887268 0.5398650169372559
          0.6798779964447021 -0.41274499893188477 0.606141984462738 -0.9710109829902649 -0.09705600142478943 -0.21844300627708435
          -0.961575984954834 0.2625010013580322 -0.0803999975323677 -0.2186499983072281 0.18340100347995758 0.9584130048751831
          -0.9990900158882141 0.006525999866425991 0.04214100167155266 0.6221100091934204 -0.41408100724220276 -0.6644669771194458
          0.037546999752521515 -0.475147008895874 -0.8791049718856812 0.8959119915962219 -0.38501399755477905 -0.2215999960899353
          -0.6980519890785217 -0.2950020134449005 -0.6524549722671509 0.9101070165634155 -0.3749780058860779 0.1763409972190857
          -0.9802939891815186 0.03379800170660019 -0.1946289986371994 0.6795600056648254 -0.44151198863983154 0.5858880281448364
          -0.9863200187683105 0.12882199883460999 0.1028439998626709 -0.220210000872612 -0.3118709921836853 0.924252986907959
          -0.10320600122213364 -0.3088560104370117 0.9454929828643799 -0.9447829723358154 0.13837000727653503 0.29705101251602173
          -0.8262119889259338 0.035252999514341354 0.5622559785842896 0.6116880178451538 -0.5865820050239563 -0.5308089852333069
          0.04492799937725067 -0.5631070137023926 -0.8251619935035706 0.7960489988327026 -0.5863479971885681 -0.15000499784946442
          -0.5903170108795166 -0.49592599272727966 -0.6368539929389954 0.8676249980926514 -0.49037599563598633 0.0822099968791008
          -0.8701279759407043 -0.44136399030685425 -0.21926100552082062 0.7772790193557739 -0.4224959909915924 0.46619200706481934
          -0.8980079889297485 -0.4181930124759674 0.1367339938879013 0.04719800129532814 -0.5016840100288391 0.8637629747390747
          -0.7114449739456177 -0.4599109888076782 0.5313460230827332 0.46599000692367554 -0.7950599789619446 -0.3882429897785187
          0.07972700148820877 -0.8311769962310791 -0.550262987613678 0.6457859873771667 -0.7543079853057861 -0.1182359978556633
          -0.3079969882965088 -0.8280349969863892 -0.4685029983520508 0.6992800235748291 -0.7145519852638245 0.020601000636816025
          -0.5582230091094971 -0.8073549866676331 -0.19122099876403809 0.5990039706230164 -0.7599020004272461 0.25247400999069214
          -0.6104410290718079 -0.7860289812088013 0.09757699817419052 0.0704059973359108 -0.8669580221176147 0.49338299036026
          -0.449506014585495 -0.8265950083732605 0.33865201473236084 0.0962430015206337 -0.9921910166740417 -0.07933100312948227
          <InformationKey name="L2_NORM_RANGE" location="vtkDataArray" length="2">
            <Value index="0">
              0.9999994293
            </Value>
            <Value index="1">
              1.0000007461
            </Value>
          </InformationKey>
        </DataArray>
      </PointData>
      <CellData>
      </CellData>
      <Points>
        <DataArray type="Float32" Name="Points" NumberOfComponents="3" format="ascii" RangeMin="0" RangeMax="0.05291999876499176">
          0.005481999833136797 0.0491270013153553 -0.007546000182628632 0 0.05027399957180023 -0.012600000016391277
          0 0.05291999876499176 0 0.01014699973165989 0.04436499997973442 -0.013965999707579613
          0 0.044982001185417175 -0.021764000877738 0.005758000072091818 0.04797999933362007 -0.0018710000440478325
          0.012138999998569489 0.04374700039625168 -0.003944000229239464 -0.004954000003635883 0.050978999584913254 -0.006818000227212906
          -0.007934999652206898 0.04339500144124031 -0.01092199981212616 0.005758000072091818 0.04797999933362007 0.0018710000440478325
          0.0038950000889599323 0.04974399879574776 0.005361999850720167 0 0.05150900036096573 0.007199999876320362
          -0.003367000026628375 0.05159600079059601 0.004633000120520592 -0.004046000074595213 0.05168500170111656 0.0013150000013411045
          -0.004046000074595213 0.05168500170111656 -0.0013150000013411045 0.012023000046610832 0.03395700082182884 -0.016548000276088715
          0 0.035280000418424606 -0.024708999320864677 0.015406999737024307 0.03263400122523308 -0.005005999933928251
          -0.008175999857485294 0.03501499816775322 -0.011253000237047672 0.012138999998569489 0.04374700039625168 0.003944000229239464
          0.015406999737024307 0.03263400122523308 0.005005999933928251 -0.004980999976396561 0.04180699959397316 -0.001617999980226159
          -0.002956999931484461 0.03475100174546242 -0.0009609999833628535 0.008992999792098999 0.04656900092959404 0.012377999722957611
          0 0.04939199984073639 0.01783600077033043 -0.006781000178307295 0.04559899866580963 0.009332999587059021
          -0.004980999976396561 0.04180699959397316 0.001617999980226159 0.011013000272214413 0.023814000189304352 -0.015158000402152538
          0 0.023814000189304352 -0.021436000242829323 0.01525100041180849 0.023814000189304352 -0.004954999778419733
          -0.00735800014808774 0.0255769994109869 -0.010127999819815159 0.01525100041180849 0.023814000189304352 0.004954999778419733
          -0.00342399999499321 0.027341999113559723 -0.0011119999689981341 0.012600000016391277 0.03492699936032295 0.017342999577522278
          0.011590000241994858 0.02346000075340271 0.015953000634908676 -0.002956999931484461 0.03475100174546242 0.0009609999833628535
          -0.00342399999499321 0.027341999113559723 0.0011119999689981341 0 0.037220001220703125 0.026673000305891037
          -0.008751999586820602 0.035985998809337616 0.012047000229358673 0.008511999621987343 0.016493000090122223 -0.01171599980443716
          0 0.018345000222325325 -0.015545999631285667 0.012760999612510204 0.01464099995791912 -0.004145999904721975
          -0.00788700021803379 0.015434999950230122 -0.010855999775230885 0.012760999612510204 0.01464099995791912 0.004145999904721975
          -0.010738000273704529 0.012524000369012356 -0.0034890000242739916 0.009088999591767788 0.016228999942541122 0.012511000037193298
          -0.010738000273704529 0.012524000369012356 0.0034890000242739916 0 0.02310900017619133 0.023399999365210533
          0 0.017815999686717987 0.01750900037586689 -0.007934999652206898 0.025225000455975533 0.01092199981212616
          -0.008464000187814236 0.015170999802649021 0.011649999767541885 0.006924999877810478 0.00873200036585331 -0.009530999697744846
          0 0.00864300038665533 -0.013418000191450119 0.009649000130593777 0.008820000104606152 -0.0031349998898804188
          -0.006924999877810478 0.007937000133097172 -0.009530999697744846 0.009649000130593777 0.008820000104606152 0.0031349998898804188
          -0.009649000130593777 0.00723200011998415 -0.0031349998898804188 0.007550999987870455 0.008555999957025051 0.01039199996739626
          -0.009649000130593777 0.00723200011998415 0.0031349998898804188 0 0.008290999568998814 0.015545999631285667
          -0.007550999987870455 0.007761000189930201 0.01039199996739626 0.003990999888628721 0.003969000186771154 -0.005495000164955854
          0 0.0042329998686909676 -0.008182000368833542 0.005135000217705965 0.003705000039190054 -0.0016690000193193555
          -0.004424000158905983 0.003616000059992075 -0.006089000031352043 0.005135000217705965 0.003705000039190054 0.0016690000193193555
          -0.006535999942570925 0.0029990000184625387 -0.002124000107869506 0.004616999998688698 0.00343999988399446 0.00635500019416213
          -0.006535999942570925 0.0029990000184625387 0.002124000107869506 0 0.0031739999540150166 0.010308999568223953
          -0.0050490000285208225 0.0030869999900460243 0.006949999835342169 0 0 0
          <InformationKey name="L2_NORM_RANGE" location="vtkDataArray" length="2">
            <Value index="0">
              0
            </Value>
            <Value index="1">
              0.052919998765
            </Value>
          </InformationKey>
        </DataArray>
      </Points>
      <Verts>
        <DataArray type="Int64" Name="connectivity" format="ascii" RangeMin="1e+299" RangeMax="-1e+299">
        </DataArray>
        <DataArray type="Int64" Name="offsets" format="ascii" RangeMin="1e+299" RangeMax="-1e+299">
        </DataArray>
      </Verts>
      <Lines>
        <DataArray type="Int64" Name="connectivity" format="ascii" RangeMin="1e+299" RangeMax="-1e+299">
        </DataArray>
        <DataArray type="Int64" Name="offsets" format="ascii" RangeMin="1e+299" RangeMax="-1e+299">
        </DataArray>
      </Lines>
      <Strips>
        <DataArray type="Int64" Name="connectivity" format="ascii" RangeMin="1e+299" RangeMax="-1e+299">
        </DataArray>
        <DataArray type="Int64" Name="offsets" format="ascii" RangeMin="1e+299" RangeMax="-1e+299">
        </DataArray>
      </Strips>
      <Polys>
        <DataArray type="Int32" Name="connectivity" format="ascii" RangeMin="0" RangeMax="71">
          0 1 2 0 3 4
          1 5 0 2 5 6
          3 0 1 7 2 1
          4 8 7 9 5 2
          10 9 2 11 10 2
          12 11 2 13 12 2
          14 13 2 7 14 2
          3 15 16 4 6 17
          15 3 4 16 18 8
          9 19 6 5 19 20
          17 6 7 8 21 14
          8 18 22 21 10 23
          19 9 11 24 23 10
          12 25 24 11 13 26
          25 12 14 21 26 13
          15 27 28 16 17 29
          27 15 16 28 30 18
          20 31 29 17 18 30
          32 22 23 33 20 19
          33 34 31 20 21 22
          35 26 22 32 36 35
          24 37 33 23 25 38
          37 24 26 35 38 25
          27 39 40 28 29 41
          39 27 28 40 42 30
          31 43 41 29 30 42
          44 32 34 45 43 31
          32 44 46 36 37 47
          34 33 47 48 45 34
          35 36 49 38 36 46
          50 49 38 49 47 37
          39 51 52 40 41 53
          51 39 40 52 54 42
          43 55 53 41 42 54
          56 44 45 57 55 43
          44 56 58 46 48 59
          57 45 46 58 60 50
          49 50 48 47 50 60
          59 48 51 61 62 52
          53 63 61 51 52 62
          64 54 55 65 63 53
          54 64 66 56 57 67
          65 55 56 66 68 58
          59 69 67 57 58 68
          70 60 60 70 69 59
          61 71 62 63 71 61
          62 71 64 65 71 63
          64 71 66 67 71 65
          66 71 68 69 71 67
          68 71 70 70 71 69
        </DataArray>
        <DataArray type="Int32" Name="offsets" format="ascii" RangeMin="3" RangeMax="300">
          3 7 10 14 17 21
          24 27 30 33 36 39
          42 46 50 54 58 62
          66 70 74 78 82 86
          90 94 98 102 106 110
          114 118 122 126 130 134
          138 142 146 150 154 158
          162 166 170 174 178 182
          186 190 194 198 202 206
          210 214 218 222 226 230
          234 238 242 246 250 254
          258 262 266 270 273 276
          279 282 285 288 291 294
          297 300
        </DataArray>
      </Polys>
    </Piece>
  </PolyData>
</VTKFile>
