<?xml version="1.0"?>
<VTKFile type="PolyData" version="0.1" byte_order="LittleEndian" header_type="UInt32" compressor="vtkZLibDataCompressor">
  <PolyData>
    <Piece NumberOfPoints="103" NumberOfVerts="0" NumberOfLines="0" NumberOfStrips="0" NumberOfPolys="202">
      <PointData Normals="Normals">
        <DataArray type="Float32" Name="Normals" NumberOfComponents="3" format="ascii" RangeMin="0.9999993783239444" RangeMax="1.000000646016154">
          0.39258599281311035 0.8852450251579285 -0.2494329959154129 0.8844280242919922 0.21240900456905365 -0.41553500294685364
          0.5039430260658264 -0.008754000067710876 -0.8636929988861084 0.1413249969482422 0.5742539763450623 -0.8063870072364807
          0.26556500792503357 0.8996279835700989 0.34661900997161865 0.8413000106811523 0.5150780081748962 0.16404099762439728
          0.010355999693274498 0.9758219718933105 0.21832099556922913 -0.2176080048084259 0.6302970051765442 0.7452340126037598
          0.9985820055007935 -0.05315599963068962 -0.0030499999411404133 0.9015250205993652 -0.24765799939632416 -0.35484999418258667
          0.6328110098838806 -0.45093199610710144 -0.6294530034065247 0.21567800641059875 -0.33994099497795105 -0.9153810143470764
          -0.06130899861454964 -0.05725200101733208 -0.9964749813079834 -0.18862999975681305 0.3105199933052063 -0.9316629767417908
          -0.05425500124692917 0.7044360041618347 -0.7076910138130188 0.5553879737854004 0.3768309950828552 0.7413110136985779
          0.9453039765357971 -0.31523698568344116 0.08382000029087067 0.1246429979801178 0.7752839922904968 -0.6191920042037964
          0.1274619996547699 0.9605559706687927 0.24715599417686462 -0.36304599046707153 -0.7477359771728516 0.555957019329071
          -0.8042060136795044 -0.43861299753189087 0.4010869860649109 -0.3145959973335266 -0.13769599795341492 0.9391850233078003
          0.9185839891433716 -0.39139801263809204 -0.05486299842596054 0.6781399846076965 -0.6734430193901062 -0.2942819893360138
          0.18499299883842468 -0.8608729839324951 -0.4739989936351776 -0.3038119971752167 -0.7192260026931763 -0.6248289942741394
          -0.3633140027523041 -0.11709599941968918 -0.924278974533081 0.031129999086260796 0.2527570128440857 -0.9670289754867554
          -0.8002349734306335 -0.46003299951553345 -0.3847000002861023 0.02213600091636181 0.12236800044775009 -0.9922379851341248
          0.718455970287323 -0.2869040071964264 0.6336460113525391 0.847383975982666 -0.5177620053291321 -0.11774200201034546
          0.40748798847198486 -0.8464369773864746 -0.3427799940109253 0.3932439982891083 -0.8886309862136841 -0.23599599301815033
          0.5609449744224548 -0.79134601354599 0.24313199520111084 0.23519699275493622 0.6281129717826843 -0.7417259812355042
          0.17538200318813324 0.07027100026607513 -0.9819890260696411 0.27559399604797363 0.916608989238739 -0.2896119952201843
          -0.005911000072956085 0.6526830196380615 0.7576079964637756 0.12980499863624573 -0.6863610148429871 0.7155830264091492
          -0.4697830080986023 -0.741042971611023 -0.47974899411201477 -0.1892080008983612 -0.8369860053062439 -0.5134720206260681
          0.4852539896965027 -0.5855349898338318 -0.6493669748306274 0.04802199825644493 -0.6312339901924133 -0.7741050124168396
          -0.5904560089111328 -0.8057590126991272 -0.04596799984574318 -0.5021820068359375 -0.6003490090370178 -0.6224110126495361
          -0.7713450193405151 -0.580066978931427 0.261817991733551 0.422417014837265 -0.7296040058135986 0.5378119945526123
          -0.06707199662923813 -0.8431940078735352 0.5334100127220154 -0.3903079926967621 -0.8921340107917786 0.22750000655651093
          0.17552299797534943 -0.9792770147323608 0.10103800147771835 -0.48181799054145813 -0.869113028049469 0.11177200078964233
          -0.23148399591445923 -0.2597210109233856 -0.9375290274620056 -0.5399010181427002 -0.4979180097579956 -0.6786640286445618
          -0.005557000171393156 -0.8120980262756348 -0.5834940075874329 -0.21950100362300873 -0.9339990019798279 0.2818950116634369
          0.31179100275039673 0.8131499886512756 -0.49150198698043823 0.2580310106277466 0.20595799386501312 -0.9439280033111572
          0.24585600197315216 0.9170470237731934 0.313973993062973 0.1415340006351471 0.5442699790000916 0.8268849849700928
          0.31212499737739563 -0.02741299942135811 0.9496449828147888 0.3245350122451782 -0.448729008436203 0.8326579928398132
          0.19133000075817108 -0.775331974029541 0.6018750071525574 0.21058699488639832 -0.677157998085022 0.7050610184669495
          0.05122299864888191 -0.9575269818305969 0.2837570011615753 0.2234800010919571 -0.9683470129966736 -0.1111840009689331
          0.2964789867401123 0.14968499541282654 -0.9432359933853149 0.29847198724746704 -0.5392879843711853 -0.7874540090560913
          0.6619300246238708 0.3233039975166321 -0.6762570142745972 0.19154700636863708 -0.8501480221748352 -0.49046701192855835
          0.38693299889564514 -0.6041979789733887 -0.696582019329071 0.5274199843406677 0.8335919976234436 -0.1641709953546524
          -0.49308499693870544 0.8578649759292603 -0.1446859985589981 -0.058462999761104584 0.9067360162734985 0.4176270067691803
          -0.3528439998626709 0.6864309906959534 0.6358569860458374 0.21868999302387238 0.0289900004863739 0.9753640294075012
          0.24379099905490875 -0.34022799134254456 0.9081910252571106 0.21854500472545624 -0.7812439799308777 0.5847190022468567
          0.16791899502277374 -0.7921109795570374 0.5868239998817444 -0.132873997092247 -0.7044439911842346 0.6972110271453857
          -0.450967013835907 -0.8828750252723694 -0.13099899888038635 -0.6290599703788757 -0.7697169780731201 -0.10871399939060211
          -0.5234389901161194 -0.82253098487854 0.22238300740718842 -0.04566999897360802 -0.9831169843673706 -0.17718499898910522
          0.20566800236701965 -0.8799300193786621 -0.4282799959182739 -0.3562830090522766 -0.19823099672794342 -0.9131079912185669
          0.2450139969587326 0.555308997631073 -0.7947329878807068 -0.7554439902305603 0.3909339904785156 -0.5258079767227173
          0.03486400097608566 -0.8130040168762207 -0.5812140107154846 -0.02391899935901165 -0.7616649866104126 -0.6475290060043335
          0.4807380139827728 0.7931699752807617 -0.37386199831962585 -0.3948970139026642 0.7689279913902283 -0.5027980208396912
          -0.9377279877662659 0.2699519991874695 0.21861299872398376 -0.6320729851722717 0.5317649841308594 0.5636569857597351
          -0.5108799934387207 0.1775050014257431 0.841126024723053 -0.07534900307655334 -0.5070729851722717 0.8586030006408691
          -0.669871985912323 -0.26978999376296997 0.69172602891922 -0.9448310136795044 -0.2926099896430969 0.14722299575805664
          -0.9389089941978455 -0.3441230058670044 0.005437999963760376 -0.8919010162353516 -0.3134770095348358 -0.3259510099887848
          -0.525272011756897 -0.7945669889450073 -0.30455300211906433 0.0010089999996125698 -0.8647559881210327 -0.5021910071372986
          -0.6484540104866028 -0.3366979956626892 -0.6827459931373596
          <InformationKey name="L2_NORM_RANGE" location="vtkDataArray" length="2">
            <Value index="0">
              0.99999937832
            </Value>
            <Value index="1">
              1.000000646
            </Value>
          </InformationKey>
        </DataArray>
      </PointData>
      <CellData>
      </CellData>
      <Points>
        <DataArray type="Float32" Name="Points" NumberOfComponents="3" format="ascii" RangeMin="0.012818915188595528" RangeMax="0.033429894151908446">
          0.02088399976491928 -0.00002300000051036477 0.018417999148368835 0.021643999963998795 -0.000653000024612993 0.018681000918149948
          0.021138999611139297 -0.002865999937057495 0.018303999677300453 0.01962199993431568 0.00026000000070780516 0.017757000401616096
          0.019706999883055687 -0.0006270000012591481 0.02534100040793419 0.021616000682115555 -0.0005179999861866236 0.020781999453902245
          0.011754999868571758 0.0012610000558197498 0.02126700058579445 0.017537999898195267 -0.0005460000247694552 0.02526099979877472
          0.021990999579429626 -0.002211000071838498 0.02012299932539463 0.02167299948632717 -0.0025239998940378428 0.019060999155044556
          0.020796999335289 -0.003826000029221177 0.018193000927567482 0.01904899999499321 -0.004381000064313412 0.01758500002324581
          0.01771700009703636 -0.003891000058501959 0.017405999824404716 0.017470000311732292 -0.00008099999831756577 0.017945000901818275
          0.017167000100016594 0.0004579999949783087 0.018378999084234238 0.0203660000115633 -0.0018420000560581684 0.02644599974155426
          0.021017000079154968 -0.002259999979287386 0.023723000660538673 0.010950000025331974 0.00042600001324899495 0.01773199997842312
          0.004900000058114529 0.0020779999904334545 0.02057100087404251 0.011068999767303467 -0.002483000047504902 0.022811999544501305
          0.01451599970459938 -0.003464000066742301 0.02391899935901165 0.018180999904870987 -0.00254100002348423 0.026465000584721565
          0.02178799919784069 -0.0029090000316500664 0.019797999411821365 0.020378999412059784 -0.004970999900251627 0.01909100078046322
          0.018456000834703445 -0.005388000048696995 0.018303999677300453 0.017517000436782837 -0.005200000014156103 0.01806499995291233
          0.016301000490784645 -0.0012369999894872308 0.017618000507354736 0.017023999243974686 -0.001091000041924417 0.017777999863028526
          0.016961000859737396 -0.004606999922543764 0.01811799965798855 0.0157919991761446 -0.00023499999952036887 0.017743999138474464
          0.02032800018787384 -0.003576999995857477 0.026288000866770744 0.020086999982595444 -0.005086999852210283 0.024464000016450882
          0.018502000719308853 -0.0061519998125731945 0.02366200089454651 0.018888000398874283 -0.004488999955356121 0.02257700078189373
          0.020865000784397125 -0.004602999892085791 0.020579999312758446 0.0029810001142323017 0.0015399999683722854 0.016315000131726265
          0.011061999946832657 -0.00032500000088475645 0.017457999289035797 0.001184999942779541 0.002767999889329076 0.016985999420285225
          0.0007450000266544521 0.002919000107795 0.018869999796152115 -0.001534000039100647 -0.003837000112980604 0.018011000007390976
          0.015426999889314175 -0.004015000071376562 0.022902000695466995 0.01822800002992153 -0.0045739999040961266 0.022312000393867493
          -0.0028639999218285084 -0.004224999807775021 0.014395000413060188 0.011225000023841858 -0.0015750000020489097 0.01782899908721447
          0.016498999670147896 -0.0033889999613165855 0.02004300057888031 0.01629900000989437 -0.005392000079154968 0.023079000413417816
          0.014961999841034412 -0.004645000211894512 0.023876000195741653 0.019764000549912453 -0.005330000072717667 0.025616999715566635
          0.018074000254273415 -0.006275999825447798 0.024762999266386032 0.017045000568032265 -0.006132999900728464 0.024397000670433044
          0.019457999616861343 -0.005549000110477209 0.01964399963617325 0.017726000398397446 -0.005390999838709831 0.018962999805808067
          0.015706000849604607 -0.0013780000153928995 0.01802399940788746 0.016176000237464905 -0.002486000070348382 0.018281999975442886
          0.01752699911594391 -0.00610999995842576 0.02338000014424324 0.018278000876307487 -0.004705999977886677 0.021333999931812286
          -0.0025949999690055847 0.003476999932900071 0.016651999205350876 0.0006639999919570982 -0.0013889999827370048 0.015112999826669693
          -0.0033100000582635403 0.003648000070825219 0.01801699958741665 -0.0037070000544190407 0.0032339999452233315 0.018580999225378036
          -0.006275999825447798 -0.0007960000075399876 0.0193719994276762 -0.006599000189453363 -0.003570999950170517 0.01895900070667267
          -0.007350000087171793 -0.004885000176727772 0.017983999103307724 -0.005824000108987093 -0.004143999889492989 0.01834299974143505
          -0.00841199979186058 -0.00570600014179945 0.017472999170422554 -0.005750999785959721 -0.005272999871522188 0.014705999754369259
          -0.005803000181913376 0.000645000021904707 0.0114120002835989 -0.005758000072091818 -0.004052000120282173 0.011649000458419323
          -0.0035149999894201756 0.0005159999709576368 0.01368900015950203 -0.005421999841928482 -0.005018000025302172 0.012666000053286552
          -0.005210000090301037 -0.004271000158041716 0.012306000106036663 -0.005164000205695629 0.004648999776691198 0.01607399992644787
          -0.006016000173985958 0.004966000095009804 0.016068000346422195 -0.007255000062286854 0.004459000192582607 0.018549000844359398
          -0.007753999903798103 0.003957999870181084 0.019363999366760254 -0.007776999846100807 0.0006270000012591481 0.020323000848293304
          -0.007521000225096941 -0.0037690000608563423 0.01948300004005432 -0.007691999897360802 -0.004743000026792288 0.018605999648571014
          -0.008159000426530838 -0.004939999897032976 0.018208999186754227 -0.009824000298976898 -0.005016000010073185 0.01875399984419346
          -0.010381000116467476 -0.005179000087082386 0.016390999779105186 -0.010162999853491783 -0.005423000082373619 0.017199000343680382
          -0.010400000028312206 -0.005357999820262194 0.017893999814987183 -0.007962999865412712 -0.005626999773085117 0.014070999808609486
          -0.007801000028848648 -0.004910999909043312 0.013036999851465225 -0.00814600009471178 -0.003650000086054206 0.01129399985074997
          -0.005594000220298767 0.0028409999795258045 0.012281999923288822 -0.00646300008520484 0.002457000082358718 0.012357000261545181
          -0.006984999869018793 -0.004652000032365322 0.012303999625146389 -0.00836899969726801 -0.004621999803930521 0.012268999591469765
          -0.005386000033468008 0.004459999967366457 0.014189999550580978 -0.00623599998652935 0.004335000179708004 0.01385900005698204
          -0.00979200005531311 -0.0012919999426230788 0.0196090005338192 -0.008585999719798565 0.0027650000993162394 0.020062999799847603
          -0.008906000293791294 0.0019910000264644623 0.020238999277353287 -0.00949500035494566 -0.0040699997916817665 0.01945500075817108
          -0.010619999840855598 -0.00394799979403615 0.019047999754548073 -0.01056700013577938 -0.004757999908179045 0.01851700060069561
          -0.010827000252902508 -0.0047519998624920845 0.016933999955654144 -0.010463999584317207 -0.004728000145405531 0.014267000369727612
          -0.009699000045657158 -0.004939999897032976 0.01331700012087822 -0.00841199979186058 -0.0055160000920295715 0.013199999928474426
          -0.00939099956303835 -0.004662000108510256 0.012745999731123447
          <InformationKey name="L2_NORM_RANGE" location="vtkDataArray" length="2">
            <Value index="0">
              0.012818915189
            </Value>
            <Value index="1">
              0.033429894152
            </Value>
          </InformationKey>
        </DataArray>
      </Points>
      <Verts>
        <DataArray type="Int64" Name="connectivity" format="ascii" RangeMin="1e+299" RangeMax="-1e+299">
        </DataArray>
        <DataArray type="Int64" Name="offsets" format="ascii" RangeMin="1e+299" RangeMax="-1e+299">
        </DataArray>
      </Verts>
      <Lines>
        <DataArray type="Int64" Name="connectivity" format="ascii" RangeMin="1e+299" RangeMax="-1e+299">
        </DataArray>
        <DataArray type="Int64" Name="offsets" format="ascii" RangeMin="1e+299" RangeMax="-1e+299">
        </DataArray>
      </Lines>
      <Strips>
        <DataArray type="Int64" Name="connectivity" format="ascii" RangeMin="1e+299" RangeMax="-1e+299">
        </DataArray>
        <DataArray type="Int64" Name="offsets" format="ascii" RangeMin="1e+299" RangeMax="-1e+299">
        </DataArray>
      </Strips>
      <Polys>
        <DataArray type="Int32" Name="connectivity" format="ascii" RangeMin="0" RangeMax="102">
          0 1 2 2 3 0
          4 5 0 1 0 5
          3 6 0 7 4 0
          6 7 0 8 9 1
          9 2 1 8 1 5
          10 11 2 9 10 2
          11 12 2 12 3 2
          12 13 3 13 14 3
          6 3 14 4 15 5
          7 15 4 16 8 5
          15 16 5 6 14 17
          17 18 6 19 6 18
          7 6 19 20 21 7
          19 20 7 21 15 7
          22 8 16 9 8 22
          9 23 10 23 9 22
          10 23 24 24 11 10
          12 11 25 11 24 25
          12 26 27 13 12 27
          12 28 26 12 25 28
          27 14 13 17 14 29
          14 27 29 21 30 15
          30 16 15 31 32 16
          32 33 16 16 33 34
          22 16 34 31 16 30
          17 35 18 17 29 36
          17 36 35 18 35 37
          18 37 38 38 19 18
          39 19 38 20 19 40
          40 19 41 19 39 42
          19 42 43 41 19 44
          19 43 44 40 45 20
          20 45 46 21 20 46
          47 30 21 48 47 21
          49 21 46 49 48 21
          23 22 34 34 50 23
          24 23 50 25 24 51
          24 50 51 51 28 25
          26 52 29 27 26 29
          53 52 26 28 53 26
          53 28 44 51 44 28
          43 36 29 43 29 52
          31 30 47 47 32 31
          48 49 32 49 54 32
          47 48 32 33 32 54
          33 54 41 41 55 33
          34 33 55 34 55 50
          56 35 57 37 35 56
          36 57 35 42 36 43
          57 36 42 56 38 37
          58 38 56 38 58 59
          38 59 60 38 60 39
          61 39 60 62 39 63
          39 61 63 39 62 64
          65 39 64 42 39 65
          45 40 41 41 54 45
          44 55 41 66 42 67
          42 66 68 69 42 65
          70 42 69 68 57 42
          67 42 70 53 44 43
          53 43 52 44 51 55
          45 54 49 49 46 45
          50 55 51 56 68 71
          58 56 71 57 68 56
          58 71 72 58 73 59
          72 73 58 74 59 73
          59 74 60 60 74 75
          76 61 60 75 76 60
          76 77 61 77 63 61
          77 62 63 78 64 62
          78 62 77 78 79 64
          80 64 81 81 64 82
          64 79 82 83 65 64
          83 64 80 69 65 84
          65 83 84 67 85 66
          86 66 87 66 85 87
          68 66 86 67 70 88
          88 89 67 89 85 67
          68 90 71 68 86 90
          84 88 69 70 69 88
          90 72 71 91 72 90
          72 74 73 87 72 91
          92 72 87 74 72 92
          74 93 75 93 74 92
          93 94 75 94 92 75
          75 92 76 76 92 95
          95 77 76 95 78 77
          95 79 78 79 96 97
          82 79 97 79 95 96
          81 98 80 80 99 83
          98 99 80 98 81 97
          81 82 97 100 101 83
          84 83 101 83 99 100
          89 88 84 84 101 89
          89 102 85 85 102 87
          91 86 87 91 90 86
          99 87 102 87 99 92
          89 101 102 93 92 94
          96 95 92 97 96 92
          92 98 97 99 98 92
          102 100 99 100 102 101
        </DataArray>
        <DataArray type="Int32" Name="offsets" format="ascii" RangeMin="3" RangeMax="606">
          3 6 9 12 15 18
          21 24 27 30 33 36
          39 42 45 48 51 54
          57 60 63 66 69 72
          75 78 81 84 87 90
          93 96 99 102 105 108
          111 114 117 120 123 126
          129 132 135 138 141 144
          147 150 153 156 159 162
          165 168 171 174 177 180
          183 186 189 192 195 198
          201 204 207 210 213 216
          219 222 225 228 231 234
          237 240 243 246 249 252
          255 258 261 264 267 270
          273 276 279 282 285 288
          291 294 297 300 303 306
          309 312 315 318 321 324
          327 330 333 336 339 342
          345 348 351 354 357 360
          363 366 369 372 375 378
          381 384 387 390 393 396
          399 402 405 408 411 414
          417 420 423 426 429 432
          435 438 441 444 447 450
          453 456 459 462 465 468
          471 474 477 480 483 486
          489 492 495 498 501 504
          507 510 513 516 519 522
          525 528 531 534 537 540
          543 546 549 552 555 558
          561 564 567 570 573 576
          579 582 585 588 591 594
          597 600 603 606
        </DataArray>
      </Polys>
    </Piece>
  </PolyData>
</VTKFile>
