<?xml version="1.0"?>
<VTKFile type="PolyData" version="0.1" byte_order="LittleEndian" header_type="UInt32" compressor="vtkZLibDataCompressor">
  <PolyData>
    <Piece NumberOfPoints="93" NumberOfVerts="0" NumberOfLines="0" NumberOfStrips="0" NumberOfPolys="182">
      <PointData Normals="Normals">
        <DataArray type="Float32" Name="Normals" NumberOfComponents="3" format="ascii" RangeMin="0.9999993727088805" RangeMax="1.0000005924399127">
          0.23221799731254578 0.5293859839439392 0.8159809708595276 0.7959660291671753 0.2905620038509369 0.5310479998588562
          0.21412299573421478 -0.274834007024765 0.9373459815979004 0.337772011756897 0.9408569931983948 -0.026422999799251556
          -0.3109169900417328 -0.03661099821329117 0.9497320055961609 0.023065000772476196 0.8190950155258179 0.5731940269470215
          0.9689139723777771 -0.2438250035047531 0.04189800098538399 0.6438570022583008 -0.4613249897956848 0.6104320287704468
          0.8825479745864868 0.4385649859905243 -0.16961300373077393 -0.3300040066242218 -0.668474018573761 0.6665130257606506
          0.18265700340270996 -0.8682129979133606 0.4613479971885681 -0.07051499933004379 0.715815007686615 -0.694720983505249
          0.6814669966697693 0.6635649800300598 -0.30868300795555115 0.054958000779151917 0.9825069904327393 -0.1779319941997528
          -0.6216650009155273 -0.4378350079059601 0.6494860053062439 -0.024142999202013016 0.30987000465393066 0.9504719972610474
          -0.8192049860954285 -0.45182299613952637 0.35321199893951416 0.9479770064353943 -0.31728601455688477 -0.025861000642180443
          0.6437219977378845 -0.7597939968109131 0.09129299968481064 -0.38173800706863403 -0.9218760132789612 -0.06649599969387054
          0.17946000397205353 -0.9834309816360474 -0.02564699947834015 -0.25556498765945435 0.1666789948940277 -0.9523149728775024
          -0.41097599267959595 -0.24926799535751343 -0.8769059777259827 -0.08521000295877457 -0.075033999979496 -0.9935340285301208
          0.5557550191879272 0.34561899304389954 -0.7560979723930359 0.9614959955215454 -0.19139300286769867 -0.19721700251102448
          0.24093200266361237 0.6604909896850586 -0.7111279964447021 0.27171099185943604 0.8698930144309998 0.4116550087928772
          -0.5372750163078308 -0.8366180062294006 0.10680100321769714 0.03535600006580353 -0.7886559963226318 0.6138179898262024
          0.2194560021162033 0.00031400000443682075 0.9756219983100891 0.4400320053100586 -0.8979640007019043 0.005758000072091818
          0.2890999913215637 -0.8202970027923584 0.493490993976593 0.7626630067825317 -0.6071749925613403 0.22289599478244781
          -0.23186799883842468 -0.9099299907684326 0.3438970148563385 -0.17066200077533722 -0.43198299407958984 -0.8855869770050049
          -0.2978230118751526 -0.9389790296554565 -0.1721010059118271 -0.7115560173988342 -0.684486985206604 -0.1586350053548813
          -0.7001579999923706 -0.6678590178489685 -0.25247201323509216 -0.17587700486183167 -0.5403029918670654 -0.8228849768638611
          0.49789199233055115 -0.7420690059661865 -0.44881799817085266 0.5310580134391785 -0.3365730047225952 -0.7776219844818115
          0.38163501024246216 0.9226899743080139 -0.05475600063800812 -0.4611150026321411 0.8871449828147888 0.01863900013267994
          0.3056879937648773 0.9516180157661438 -0.03125699982047081 -0.07388000190258026 0.9595370292663574 -0.27171799540519714
          -0.733892023563385 0.6762840151786804 -0.06357300281524658 -0.5359640121459961 0.5628650188446045 -0.6292269825935364
          0.23977699875831604 0.019023999571800232 -0.9706419706344604 0.27585598826408386 -0.13601599633693695 -0.9515269994735718
          0.5613750219345093 0.6970800161361694 0.44602400064468384 0.3182629942893982 0.17466899752616882 0.931771993637085
          -0.3186179995536804 -0.8802949786186218 0.3515160083770752 0.0021430000197142363 -0.9785569906234741 -0.2059669941663742
          0.2613449990749359 -0.7064390182495117 0.657755970954895 0.07943399995565414 -0.9538959860801697 -0.289436012506485
          -0.2861509919166565 -0.9265130162239075 -0.2443159967660904 -0.31113201379776 -0.7225310206413269 0.6173700094223022
          -0.28413501381874084 -0.6101199984550476 0.7396090030670166 0.01329800020903349 -0.5815039873123169 -0.8134350180625916
          -0.5348889827728271 -0.7199299931526184 0.4422610104084015 -0.6246939897537231 -0.4302769899368286 0.6516289710998535
          0.40188300609588623 0.8836230039596558 0.24020899832248688 -0.6778709888458252 0.5422049760818481 0.49649301171302795
          -0.2675049901008606 0.8819869756698608 0.38799598813056946 -0.7720209956169128 0.5075380206108093 0.38260701298713684
          -0.794642984867096 0.5913310050964355 0.1373700052499771 -0.8973150253295898 0.11239100247621536 -0.42684298753738403
          -0.46158701181411743 0.2825379967689514 -0.8408979773521423 -0.5658890008926392 0.01874599978327751 -0.8242679834365845
          0.2590799927711487 -0.43473899364471436 -0.8624839782714844 0.3873780071735382 -0.5876340270042419 -0.7103689908981323
          0.6671379804611206 0.18811699748039246 0.7207900285720825 0.38433098793029785 0.6519449949264526 0.6536499857902527
          0.5552999973297119 -0.3264380097389221 0.7649059891700745 0.15430399775505066 -0.8985679745674133 -0.41081100702285767
          0.3183929920196533 -0.8932979702949524 0.3172459900379181 -0.08121299743652344 0.34090301394462585 0.9365839958190918
          -0.4091910123825073 0.09710700064897537 0.9072669744491577 -0.5297269821166992 -0.4559110105037689 0.7152169942855835
          -0.7228140234947205 0.4403580129146576 0.5325649976730347 -0.7676910161972046 0.0829240009188652 0.6354320049285889
          -0.5860679745674133 0.801239013671875 0.12057899683713913 -0.8467109799385071 0.2866879999637604 0.4482080042362213
          -0.5563740134239197 -0.8169019818305969 -0.15205299854278564 -0.9773929715156555 0.1715719997882843 0.12355600297451019
          -0.16060100495815277 -0.7264189720153809 -0.6682230234146118 0.23771299421787262 -0.9184020161628723 -0.31627699732780457
          0.5091710090637207 -0.2415889948606491 0.8260629773139954 -0.3731600046157837 -0.8522670269012451 0.3665960133075714
          0.2625409960746765 -0.8041809797286987 0.5332589745521545 0.025691000744700432 -0.578354001045227 0.8153809905052185
          -0.9494670033454895 0.07320699840784073 0.3052099943161011
          <InformationKey name="L2_NORM_RANGE" location="vtkDataArray" length="2">
            <Value index="0">
              0.99999937271
            </Value>
            <Value index="1">
              1.0000005924
            </Value>
          </InformationKey>
        </DataArray>
      </PointData>
      <CellData>
      </CellData>
      <Points>
        <DataArray type="Float32" Name="Points" NumberOfComponents="3" format="ascii" RangeMin="0.0045794209430673" RangeMax="0.03954840130275779">
          0.03649099916219711 -0.0007919999770820141 -0.002177000045776367 0.03860799968242645 -0.0018980000168085098 -0.0032319999299943447
          0.035569000989198685 -0.005690000019967556 -0.0018570000538602471 0.03748499974608421 -0.0007179999956861138 -0.003898999886587262
          0.03342900052666664 -0.003932000137865543 -0.0017719999887049198 0.03379200026392937 -0.0005130000063218176 -0.0029800001066178083
          0.03891399875283241 -0.0036180000752210617 -0.004832000005990267 0.03749600052833557 -0.005160000175237656 -0.002583000110462308
          0.03861299902200699 -0.0018629999831318855 -0.005640000104904175 0.03380199894309044 -0.0066200001165270805 -0.0024339999072253704
          0.03482099995017052 -0.006808999925851822 -0.0027020000852644444 0.03295399993658066 -0.0020099999383091927 -0.01090100035071373
          0.03721199929714203 -0.001908999984152615 -0.009228999726474285 0.027470000088214874 0.000375000003259629 -0.00684100016951561
          0.03248300030827522 -0.0036639999598264694 -0.0028059999458491802 0.03226099908351898 -0.0011709999525919557 -0.0022140000946819782
          0.03322000056505203 -0.005987000185996294 -0.0025259999092668295 0.037932999432086945 -0.0037950000260025263 -0.008894000202417374
          0.03695699945092201 -0.006397000048309565 -0.003607999999076128 0.0339680016040802 -0.00685499981045723 -0.0035039999056607485
          0.03587999939918518 -0.007023000158369541 -0.004255000036209822 0.024581000208854675 -0.0019970000721514225 -0.008585000410676003
          0.03143100067973137 -0.004288000054657459 -0.010966000147163868 0.03474399819970131 -0.004126000218093395 -0.012280999682843685
          0.03732199966907501 -0.0034630000591278076 -0.01202400028705597 0.037675999104976654 -0.004906999878585339 -0.010978000238537788
          0.010397999547421932 0.0033569999504834414 -0.00481100007891655 0.022576000541448593 0.0010860000038519502 -0.002331000054255128
          0.032565001398324966 -0.0048790001310408115 -0.005872000008821487 0.02700899913907051 -0.0026149998884648085 -0.0024369999300688505
          0.022064000368118286 -0.0015709999715909362 -0.0010489999549463391 0.03599800169467926 -0.005836000200361013 -0.007946999743580818
          0.034717999398708344 -0.007821000181138515 -0.00889699999243021 0.036695998162031174 -0.006750000175088644 -0.009705999866127968
          0.03446999937295914 -0.006095999851822853 -0.007416999898850918 0.015922000631690025 -0.003834000090137124 -0.005863000173121691
          0.026427999138832092 -0.003894000081345439 -0.008717999793589115 0.030293000862002373 -0.004991000052541494 -0.00966500025242567
          0.031237000599503517 -0.007009000051766634 -0.00950700044631958 0.03513500094413757 -0.0072929998859763145 -0.011144000105559826
          0.03636400029063225 -0.007046999875456095 -0.011037999764084816 0.03717200085520744 -0.005266000051051378 -0.011796999722719193
          0.008891000412404537 0.005121999885886908 -0.0015450000064447522 0.007379000075161457 0.0053079999051988125 -0.0018149999668821692
          0.013485999777913094 0.0032919999212026596 -0.0025480000767856836 0.006444000173360109 0.004832000005990267 -0.005018000025302172
          0.005872000008821487 0.004269000142812729 -0.006132000125944614 0.004875999875366688 0.0029899999499320984 -0.00710600009188056
          0.005080000031739473 0.0015699999639764428 -0.007420000154525042 0.008750000037252903 -0.00016500000492669642 -0.005526999942958355
          0.009813000448048115 0.0038850000128149986 -0.000048000001697801054 0.019703000783920288 0.0001990000018849969 -0.0006169999833218753
          0.03240299969911575 -0.004972999915480614 -0.006829999852925539 0.015876999124884605 -0.004447000101208687 -0.00418699998408556
          0.010955999605357647 -0.00392800010740757 0.0010499999625608325 0.03426799923181534 -0.007997999899089336 -0.010200999677181244
          0.03305799886584282 -0.00785799976438284 -0.009882999584078789 0.03265500068664551 -0.007501000072807074 -0.008503000251948833
          0.032228998839855194 -0.005568999797105789 -0.007797999773174524 0.009755999781191349 -0.0035620001144707203 -0.0047980002127587795
          0.031252000480890274 -0.005545999854803085 -0.008341999724507332 0.03176100179553032 -0.006471999920904636 -0.008427999913692474
          0.008721999824047089 0.0050760000012815 0.0009720000089146197 0.007447999902069569 0.0041600000113248825 0.002389000030234456
          0.007718000095337629 0.005003000143915415 0.0013210000470280647 0.0048409998416900635 -0.0025859999004751444 0.0038040000945329666
          0.0035359999164938927 -0.002650999929755926 -0.0012000000569969416 0.0020940001122653484 -0.00393400015309453 -0.005783999804407358
          0.004466000013053417 0.00215999991632998 -0.00735800014808774 0.003621000098064542 -0.0005510000046342611 -0.007253000047057867
          0.005805999971926212 -0.003708000062033534 -0.006250999867916107 0.006800999864935875 -0.0034370000939816236 -0.005495999939739704
          0.010639999993145466 0.0006140000186860561 0.0019409999949857593 0.00850099977105856 0.0034910000395029783 0.0035459999926388264
          0.010088999755680561 -0.0031369999051094055 0.0019529999699443579 0.007565000094473362 -0.003957999870181084 -0.004612000193446875
          0.00889899954199791 -0.004226999823004007 0.002256999956443906 0.00814600009471178 0.0011129999766126275 0.004755999892950058
          0.0050479997880756855 -0.0031510000117123127 0.004637999925762415 0.00430000014603138 -0.0036150000523775816 0.00395999988541007
          0.003963999915868044 -0.003490000031888485 0.0032790000550448895 0.0033309999853372574 -0.0038950000889599323 0.0027979998849332333
          0.002065999899059534 -0.004135000053793192 -0.0006339999963529408 0.0022539999336004257 -0.004253999795764685 0.0013849999522790313
          0.0019020000472664833 -0.004683000035583973 -0.004989000037312508 0.0015069999499246478 -0.004495999775826931 -0.0011820000363513827
          0.0027260000351816416 -0.004647000227123499 -0.005758000072091818 0.00533499987795949 -0.0047079999931156635 -0.0050200000405311584
          0.008239000104367733 -0.002761000068858266 0.004705999977886677 0.003654999891296029 -0.005022000055760145 0.0022060000337660313
          0.007841999642550945 -0.0035290000960230827 0.004437000025063753 0.007023000158369541 -0.0034229999873787165 0.004772999789565802
          0.0018739999504759908 -0.004337000194936991 0.000547999981790781
          <InformationKey name="L2_NORM_RANGE" location="vtkDataArray" length="2">
            <Value index="0">
              0.0045794209431
            </Value>
            <Value index="1">
              0.039548401303
            </Value>
          </InformationKey>
        </DataArray>
      </Points>
      <Verts>
        <DataArray type="Int64" Name="connectivity" format="ascii" RangeMin="1e+299" RangeMax="-1e+299">
        </DataArray>
        <DataArray type="Int64" Name="offsets" format="ascii" RangeMin="1e+299" RangeMax="-1e+299">
        </DataArray>
      </Verts>
      <Lines>
        <DataArray type="Int64" Name="connectivity" format="ascii" RangeMin="1e+299" RangeMax="-1e+299">
        </DataArray>
        <DataArray type="Int64" Name="offsets" format="ascii" RangeMin="1e+299" RangeMax="-1e+299">
        </DataArray>
      </Lines>
      <Strips>
        <DataArray type="Int64" Name="connectivity" format="ascii" RangeMin="1e+299" RangeMax="-1e+299">
        </DataArray>
        <DataArray type="Int64" Name="offsets" format="ascii" RangeMin="1e+299" RangeMax="-1e+299">
        </DataArray>
      </Strips>
      <Polys>
        <DataArray type="Int32" Name="connectivity" format="ascii" RangeMin="0" RangeMax="92">
          2 1 0 0 1 3
          2 0 4 0 5 4
          5 0 3 1 7 6
          1 2 7 8 3 1
          8 1 6 9 2 4
          9 10 2 7 2 10
          12 11 3 8 12 3
          13 5 3 3 11 13
          15 14 4 15 4 5
          4 14 16 4 16 9
          15 5 13 6 17 8
          18 17 6 6 7 18
          10 18 7 8 17 12
          9 16 19 19 10 9
          20 18 10 19 20 10
          21 13 11 11 23 22
          11 22 21 12 24 11
          11 24 23 25 12 17
          24 12 25 27 13 26
          26 13 21 15 13 27
          29 28 14 28 16 14
          14 15 29 30 29 15
          27 30 15 16 28 19
          32 17 31 17 32 33
          18 31 17 25 17 33
          18 20 31 34 19 28
          19 31 20 19 34 31
          36 35 21 21 22 36
          35 26 21 22 37 36
          39 38 22 22 38 37
          39 22 23 23 41 40
          23 40 39 24 41 23
          41 24 25 41 25 40
          25 33 40 43 42 26
          26 44 27 26 42 44
          26 45 43 46 45 26
          26 47 46 26 48 47
          48 26 49 35 49 26
          51 27 50 44 50 27
          30 27 51 36 28 29
          28 36 52 28 52 34
          36 29 53 54 53 29
          29 30 54 54 30 51
          34 32 31 55 40 32
          32 56 55 32 57 56
          32 40 33 58 57 32
          34 58 32 58 34 52
          53 59 35 36 53 35
          35 59 49 60 58 36
          60 36 37 36 58 52
          37 61 60 38 61 37
          39 56 38 38 57 61
          57 38 56 55 39 40
          55 56 39 42 50 44
          42 62 50 42 43 62
          45 46 43 64 43 63
          62 43 64 65 43 46
          65 63 43 67 66 46
          46 47 67 66 65 46
          48 68 47 47 68 69
          67 47 69 68 48 69
          70 69 48 49 70 48
          49 71 70 59 71 49
          50 72 51 50 73 72
          50 62 73 74 51 72
          74 54 51 59 53 75
          54 75 53 76 54 74
          75 54 76 57 58 61
          58 60 61 59 75 71
          73 62 64 65 77 63
          63 73 64 63 77 73
          77 65 78 65 79 78
          65 80 79 80 65 81
          83 65 82 65 83 81
          66 82 65 66 67 84
          84 85 66 66 85 82
          69 70 67 70 86 67
          84 67 86 70 87 86
          71 87 70 71 75 87
          77 72 73 88 72 77
          74 72 88 76 74 88
          76 87 75 84 76 89
          76 84 87 79 89 76
          90 79 76 76 88 90
          78 88 77 79 91 78
          78 91 88 81 89 79
          79 90 91 80 81 79
          89 81 83 82 92 83
          85 92 82 83 92 89
          86 87 84 85 84 89
          85 89 92 88 91 90
        </DataArray>
        <DataArray type="Int32" Name="offsets" format="ascii" RangeMin="3" RangeMax="546">
          3 6 9 12 15 18
          21 24 27 30 33 36
          39 42 45 48 51 54
          57 60 63 66 69 72
          75 78 81 84 87 90
          93 96 99 102 105 108
          111 114 117 120 123 126
          129 132 135 138 141 144
          147 150 153 156 159 162
          165 168 171 174 177 180
          183 186 189 192 195 198
          201 204 207 210 213 216
          219 222 225 228 231 234
          237 240 243 246 249 252
          255 258 261 264 267 270
          273 276 279 282 285 288
          291 294 297 300 303 306
          309 312 315 318 321 324
          327 330 333 336 339 342
          345 348 351 354 357 360
          363 366 369 372 375 378
          381 384 387 390 393 396
          399 402 405 408 411 414
          417 420 423 426 429 432
          435 438 441 444 447 450
          453 456 459 462 465 468
          471 474 477 480 483 486
          489 492 495 498 501 504
          507 510 513 516 519 522
          525 528 531 534 537 540
          543 546
        </DataArray>
      </Polys>
    </Piece>
  </PolyData>
</VTKFile>
