<?xml version="1.0"?>
<VTKFile type="PolyData" version="0.1" byte_order="LittleEndian" header_type="UInt32" compressor="vtkZLibDataCompressor">
  <PolyData>
    <Piece NumberOfPoints="95" NumberOfVerts="0" NumberOfLines="0" NumberOfStrips="0" NumberOfPolys="186">
      <PointData Normals="Normals">
        <DataArray type="Float32" Name="Normals" NumberOfComponents="3" format="ascii" RangeMin="0.9999994777400691" RangeMax="1.000000723665057">
          0.6646810173988342 0.625993013381958 -0.40783700346946716 0.3459419906139374 0.48361098766326904 -0.8040180206298828
          0.6581640243530273 0.2817560136318207 -0.6981649994850159 0.40077000856399536 0.9050260186195374 -0.1425199955701828
          0.5162240266799927 0.8486250042915344 0.11553099751472473 -0.031191999092698097 0.9699919819831848 -0.24112999439239502
          0.27303698658943176 0.5581820011138916 -0.7835069894790649 0.09375599771738052 0.8227199912071228 -0.5606619715690613
          0.3005340099334717 0.3442690074443817 -0.8894709944725037 0.28029799461364746 0.8331440091133118 -0.4767639935016632
          0.3330099880695343 -0.006508000195026398 -0.9429010152816772 0.5843430161476135 -0.43174999952316284 -0.6871209740638733
          0.5396140217781067 0.09792699664831161 -0.8361979722976685 0.20362600684165955 0.6714169979095459 0.712556004524231
          -0.08715000003576279 0.3737129867076874 0.9234409928321838 0.33264800906181335 0.5336719751358032 0.777521014213562
          0.10419899970293045 0.9522489905357361 0.28699201345443726 -0.6908019781112671 0.5804550051689148 -0.43112000823020935
          -0.7952449917793274 0.599789023399353 0.08853299915790558 -0.3831090033054352 -0.13575099408626556 -0.9136729836463928
          -0.7503589987754822 0.45781999826431274 -0.4768249988555908 0.3368209898471832 -0.29899701476097107 -0.8928340077400208
          -0.03358599916100502 0.7945740222930908 0.60623699426651 0.2269829958677292 0.5054029822349548 -0.8324940204620361
          0.14059999585151672 0.9900050163269043 -0.011057999916374683 0.43912699818611145 -0.7225880026817322 -0.5338850021362305
          0.16962899267673492 -0.910082995891571 -0.3781200051307678 0.2673099935054779 -0.9380220174789429 0.2205909937620163
          0.1610330045223236 -0.6606299877166748 -0.7332370281219482 0.5487040281295776 -0.3245280086994171 -0.7704579830169678
          0.2830919921398163 -0.3444109857082367 -0.8951200246810913 0.08245900273323059 0.14033600687980652 0.9866639971733093
          -0.12439300119876862 0.08094500005245209 0.9889259934425354 0.03942500054836273 -0.695235013961792 0.7177000045776367
          -0.17659500241279602 -0.7316280007362366 0.6584339737892151 -0.4608379900455475 -0.8806959986686707 0.10955899953842163
          0.07503899931907654 -0.26180198788642883 0.9621999859809875 -0.09274700284004211 0.33914899826049805 0.9361500144004822
          0.35280200839042664 -0.016818000003695488 0.9355469942092896 -0.9654110074043274 0.1624000072479248 0.2039790004491806
          0.10168199986219406 -0.5249879956245422 -0.8450139760971069 -0.18993400037288666 -0.8098549842834473 -0.5550320148468018
          -0.9207170009613037 -0.05446799844503403 -0.3864099979400635 0.1876010000705719 -0.9791989922523499 -0.07730100303888321
          0.0007680000271648169 -0.39541900157928467 -0.9185010194778442 0.10936299711465836 0.6379910111427307 0.7622380256652832
          -0.34689998626708984 0.06007999926805496 0.9359760284423828 -0.03752800077199936 0.4612410068511963 -0.886480987071991
          0.327237993478775 0.7445769906044006 -0.5818250179290771 0.28370699286460876 0.8741570115089417 0.3941589891910553
          0.08397000283002853 -0.9860420227050781 0.14377300441265106 0.23406800627708435 -0.7960569858551025 0.5581269860267639
          0.32437101006507874 -0.6712759733200073 0.6664620041847229 0.2107190042734146 -0.8509089946746826 0.4811969995498657
          -0.290800005197525 -0.7913079857826233 -0.5378350019454956 -0.5257120132446289 -0.39276400208473206 -0.7545610070228577
          -0.7173939943313599 -0.5319259762763977 0.44989100098609924 -0.5528720021247864 -0.733568012714386 -0.39523500204086304
          0.17357400059700012 -0.37554699182510376 0.9104049801826477 -0.3748539984226227 -0.12247399985790253 0.9189590215682983
          0.22346700727939606 -0.15226499736309052 0.9627450108528137 -0.8762350082397461 -0.32821300625801086 0.3528290092945099
          -0.14319799840450287 -0.6487849950790405 0.7473769783973694 -0.5889350175857544 -0.8053349852561951 -0.06775999814271927
          -0.5134620070457458 -0.31501999497413635 -0.7981979846954346 -0.2096240073442459 -0.0036430000327527523 -0.977774977684021
          0.7845590114593506 0.5098130106925964 0.3529280126094818 0.3511120080947876 0.16054899990558624 0.922465980052948
          -0.18709300458431244 -0.286065012216568 0.9397680163383484 -0.2760559916496277 0.07896900177001953 -0.9578920006752014
          0.6106110215187073 -0.07897000014781952 -0.7879830002784729 0.8382409811019897 0.40536201000213623 -0.36473900079727173
          -0.37257999181747437 -0.49334800243377686 -0.7859969735145569 0.2502659857273102 -0.8472520112991333 0.4685420095920563
          -0.13348500430583954 -0.8665379881858826 0.4809289872646332 0.3171429932117462 -0.7103819847106934 0.6283130049705505
          0.46988898515701294 -0.857450008392334 -0.20972299575805664 -0.26892000436782837 -0.4690589904785156 -0.8412290215492249
          0.20883099734783173 -0.9735109806060791 -0.09309100359678268 -0.7818800210952759 -0.3427349925041199 -0.520766019821167
          -0.49392399191856384 -0.7228999733924866 0.4831719994544983 0.8149330019950867 -0.34595000743865967 0.4649749994277954
          0.9420419931411743 -0.28484100103378296 0.17726199328899384 0.9959980249404907 -0.06682299822568893 -0.05934999883174896
          -0.10402700304985046 -0.9683420062065125 0.22691699862480164 0.6634979844093323 -0.6279810070991516 0.4067060053348541
          0.298880010843277 -0.8707470297813416 0.39047399163246155 0.6857219934463501 -0.6118869781494141 -0.3941830098628998
          0.35624998807907104 -0.6256279945373535 -0.6940280199050903 0.9025470018386841 -0.39395299553871155 -0.17381000518798828
          0.7846450209617615 -0.5532739758491516 -0.27967798709869385 0.35518598556518555 -0.7090579867362976 -0.6091629862785339
          0.7919089794158936 -0.5648220181465149 0.2320680022239685 0.6720060110092163 -0.7351970076560974 0.08884099870920181
          0.6919429898262024 -0.6293569803237915 -0.3537310063838959
          <InformationKey name="L2_NORM_RANGE" location="vtkDataArray" length="2">
            <Value index="0">
              0.99999947774
            </Value>
            <Value index="1">
              1.0000007237
            </Value>
          </InformationKey>
        </DataArray>
      </PointData>
      <CellData>
      </CellData>
      <Points>
        <DataArray type="Float32" Name="Points" NumberOfComponents="3" format="ascii" RangeMin="0.03060382748906963" RangeMax="0.04145719430442264">
          -0.017121000215411186 0.0038300000596791506 0.02895900048315525 -0.014654000289738178 0.0015849999617785215 0.02837499976158142
          -0.016806000843644142 0.0005409999866969883 0.026926999911665916 -0.016405999660491943 0.004652999807149172 0.03121500089764595
          -0.018974000588059425 0.006238999776542187 0.03101000003516674 -0.019435999915003777 0.0064929998479783535 0.02879899926483631
          -0.019067000597715378 0.00495600001886487 0.02645700052380562 -0.019121000543236732 0.005903999786823988 0.027652999386191368
          -0.011225000023841858 0.0013849999522790313 0.029249999672174454 -0.0068720001727342606 0.00216599996201694 0.0314750000834465
          -0.013113999739289284 -0.001366000040434301 0.0281009990721941 -0.016462000086903572 -0.003317000111564994 0.026822999119758606
          -0.018712999299168587 -0.0005849999724887311 0.024209000170230865 -0.01547400001436472 0.00381199992261827 0.03292800113558769
          -0.011339000426232815 0.002529999939724803 0.034306999295949936 -0.019241999834775925 0.005055000074207783 0.03305299952626228
          -0.019780000671744347 0.006604999769479036 0.031120000407099724 -0.019770000129938126 0.005551000125706196 0.027567999437451363
          -0.020975999534130096 0.005396000109612942 0.03365200012922287 -0.021344000473618507 -0.0016830000095069408 0.023938000202178955
          -0.01968199945986271 0.00456500006839633 0.02656799927353859 -0.011235999874770641 -0.001155999954789877 0.02869899943470955
          -0.0036989999935030937 0.0014959999825805426 0.03522700071334839 -0.002824000082910061 0.00009999999747378752 0.031362999230623245
          0.0003980000037699938 0.0008609999786131084 0.03437900170683861 -0.01337399985641241 -0.0021100000012665987 0.02826800011098385
          -0.019965000450611115 -0.004470000043511391 0.026791999116539955 -0.0179820004850626 -0.004435999784618616 0.03010600060224533
          -0.018933000043034554 -0.003647000063210726 0.0248819999396801 -0.018672000616788864 -0.0027719999197870493 0.024687999859452248
          -0.019153999164700508 -0.002343999920412898 0.024080000817775726 -0.017559999600052834 0.003926999866962433 0.033225998282432556
          -0.016196999698877335 0.002449000021442771 0.03337400034070015 -0.01753699965775013 -0.0037320000119507313 0.03144599869847298
          -0.012136000208556652 -0.0026110000908374786 0.03300999850034714 -0.0018840000266209245 -0.003860000055283308 0.0365619994699955
          -0.01674799993634224 0.000012000000424450263 0.03284600004553795 -0.021712999790906906 0.003848999971523881 0.03478199988603592
          -0.02011599950492382 0.0020200000144541264 0.03392399847507477 -0.023065000772476196 -0.0016250000335276127 0.03366699814796448
          -0.019460000097751617 -0.0028689999599009752 0.02442999929189682 -0.021795999258756638 -0.004145999904721975 0.02546600066125393
          -0.022950999438762665 -0.0034799999557435513 0.025814000517129898 -0.01209499966353178 -0.002776999957859516 0.0316229984164238
          -0.0009389999904669821 -0.0013760000001639128 0.031683001667261124 0.003082999959588051 -0.001883000019006431 0.038809001445770264
          0.00008299999899463728 -0.0012039999710395932 0.03820300102233887 0.00164899998344481 0.000058000001445179805 0.031870998442173004
          0.006155999843031168 0.0004459999909158796 0.03263000026345253 0.005805999971926212 0.00010900000052060932 0.03529899939894676
          -0.02198999933898449 -0.0054709999822080135 0.029908999800682068 -0.01947999931871891 -0.0041669998317956924 0.031112000346183777
          -0.020215999335050583 -0.0036849998869001865 0.031943000853061676 -0.02096099965274334 -0.004794000182300806 0.03060699999332428
          0.003625999903306365 -0.005568999797105789 0.035078998655080795 0.00043799998820759356 -0.005253000184893608 0.036100998520851135
          -0.0004990000161342323 -0.004794999957084656 0.03689900040626526 0.002177000045776367 -0.004114000126719475 0.03409099951386452
          -0.021425999701023102 -0.0023980000987648964 0.03349899873137474 -0.02233099937438965 0.0021440000273287296 0.03486299887299538
          -0.021831000223755836 0.0015529999509453773 0.03478600084781647 -0.023972000926733017 -0.004602999892085791 0.03137600049376488
          -0.02298000082373619 -0.004191000014543533 0.03248099982738495 -0.02382900007069111 -0.0050860000774264336 0.0305550005286932
          0.002094999887049198 -0.0024399999529123306 0.03179199993610382 0.0016090000281110406 -0.0012069999938830733 0.03182400017976761
          0.007457000203430653 -0.000986000057309866 0.03538300096988678 0.0064849997870624065 -0.0032629999332129955 0.03911599889397621
          0.0027779999654740095 -0.0031709999311715364 0.03879600018262863 0.00216599996201694 -0.0009889999637380242 0.03152500092983246
          0.006744000129401684 -0.0038999998942017555 0.031605999916791916 0.007544999942183495 -0.0006419999990612268 0.032924000173807144
          0.003470000112429261 -0.005284999962896109 0.030928000807762146 -0.021734999492764473 -0.004867999814450741 0.03087100014090538
          -0.023313000798225403 -0.004989000037312508 0.03151499852538109 -0.02112000063061714 -0.0039900001138448715 0.03248700127005577
          0.005036999937146902 -0.0053369998931884766 0.03556099906563759 0.0015770000172778964 -0.0072200000286102295 0.03578300029039383
          0.005359000060707331 -0.005979000125080347 0.03229999914765358 -0.00013699999544769526 -0.006053000222891569 0.0365619994699955
          0.0008370000286959112 -0.007319000083953142 0.03640099987387657 0.006812999956309795 -0.004863000009208918 0.038458000868558884
          0.007395000196993351 -0.0030580000020563602 0.0363209992647171 0.008042999543249607 -0.002520000096410513 0.03367700055241585
          0.0029700000304728746 -0.007879000157117844 0.03670499846339226 0.0063299997709691525 -0.005919999908655882 0.03800100088119507
          0.00433199992403388 -0.0074720000848174095 0.03713500127196312 0.006357999984174967 -0.005255000200122595 0.031991999596357346
          0.005437000188976526 -0.0056039998307824135 0.03149000182747841 0.007660999894142151 -0.003868000116199255 0.03338199853897095
          0.006215000059455633 -0.004470000043511391 0.036139000207185745 0.003541999962180853 -0.007569999899715185 0.035937998443841934
          0.00747800013050437 -0.003938000183552504 0.03432599827647209 0.0068350001238286495 -0.0051460000686347485 0.03339599817991257
          0.005799999926239252 -0.006448000203818083 0.03673499822616577
          <InformationKey name="L2_NORM_RANGE" location="vtkDataArray" length="2">
            <Value index="0">
              0.030603827489
            </Value>
            <Value index="1">
              0.041457194304
            </Value>
          </InformationKey>
        </DataArray>
      </Points>
      <Verts>
        <DataArray type="Int64" Name="connectivity" format="ascii" RangeMin="1e+299" RangeMax="-1e+299">
        </DataArray>
        <DataArray type="Int64" Name="offsets" format="ascii" RangeMin="1e+299" RangeMax="-1e+299">
        </DataArray>
      </Verts>
      <Lines>
        <DataArray type="Int64" Name="connectivity" format="ascii" RangeMin="1e+299" RangeMax="-1e+299">
        </DataArray>
        <DataArray type="Int64" Name="offsets" format="ascii" RangeMin="1e+299" RangeMax="-1e+299">
        </DataArray>
      </Lines>
      <Strips>
        <DataArray type="Int64" Name="connectivity" format="ascii" RangeMin="1e+299" RangeMax="-1e+299">
        </DataArray>
        <DataArray type="Int64" Name="offsets" format="ascii" RangeMin="1e+299" RangeMax="-1e+299">
        </DataArray>
      </Strips>
      <Polys>
        <DataArray type="Int32" Name="connectivity" format="ascii" RangeMin="0" RangeMax="94">
          0 1 2 3 0 4
          0 5 4 2 6 0
          0 3 1 7 5 0
          7 0 6 8 1 9
          3 9 1 1 10 11
          1 11 2 10 1 8
          2 12 6 12 2 11
          13 14 3 3 14 9
          3 4 13 13 4 15
          15 4 16 5 16 4
          5 7 17 18 16 5
          17 18 5 19 20 6
          12 19 6 7 6 20
          7 20 17 21 8 9
          8 21 10 14 22 9
          23 9 24 24 9 22
          9 23 21 10 21 25
          25 11 10 26 11 27
          11 25 27 28 11 26
          29 11 28 12 11 29
          30 12 29 30 19 12
          13 15 31 14 13 32
          13 31 32 33 34 14
          14 34 35 35 22 14
          36 14 32 14 36 33
          37 38 15 38 31 15
          16 18 15 37 15 18
          18 17 20 20 39 18
          37 18 39 40 19 30
          28 26 19 26 41 19
          42 19 41 28 19 40
          20 19 39 19 42 39
          21 43 25 21 44 35
          21 35 43 44 21 23
          22 45 24 46 45 22
          35 46 22 47 23 24
          44 23 47 47 24 48
          24 49 48 49 24 45
          25 43 27 27 50 26
          26 50 41 51 27 52
          33 27 43 53 27 51
          33 52 27 27 53 50
          29 28 40 30 29 40
          38 36 31 32 31 36
          52 33 36 34 33 43
          34 43 35 35 54 55
          56 35 55 35 56 46
          44 57 35 57 54 35
          36 38 58 36 58 52
          59 60 37 38 37 60
          59 37 39 38 60 58
          39 42 61 59 39 58
          39 62 58 61 62 39
          50 63 41 42 41 63
          61 42 63 64 57 44
          64 44 65 44 47 65
          66 49 45 67 66 45
          68 67 45 46 68 45
          68 46 56 69 65 47
          69 47 48 70 48 71
          72 48 70 72 69 48
          66 71 48 49 66 48
          73 74 50 50 74 63
          73 50 53 73 53 51
          73 51 52 75 52 58
          75 73 52 76 77 54
          57 72 54 77 55 54
          76 54 78 54 72 78
          55 77 56 79 56 77
          80 68 56 56 79 80
          64 72 57 75 58 62
          60 59 58 74 61 63
          74 62 61 62 73 75
          62 74 73 64 65 69
          72 64 69 67 81 66
          81 82 66 83 71 66
          66 82 83 68 81 67
          84 68 80 85 81 68
          86 85 68 84 86 68
          70 87 88 83 70 71
          70 88 72 70 83 89
          87 70 89 78 72 88
          76 90 91 76 91 77
          90 76 92 92 76 93
          76 78 93 79 77 80
          84 80 77 84 77 91
          93 78 87 88 87 78
          81 90 82 81 85 90
          92 82 90 92 83 82
          89 83 92 91 86 84
          86 94 85 90 85 94
          94 86 91 87 89 93
          89 92 93 94 91 90
        </DataArray>
        <DataArray type="Int32" Name="offsets" format="ascii" RangeMin="3" RangeMax="558">
          3 6 9 12 15 18
          21 24 27 30 33 36
          39 42 45 48 51 54
          57 60 63 66 69 72
          75 78 81 84 87 90
          93 96 99 102 105 108
          111 114 117 120 123 126
          129 132 135 138 141 144
          147 150 153 156 159 162
          165 168 171 174 177 180
          183 186 189 192 195 198
          201 204 207 210 213 216
          219 222 225 228 231 234
          237 240 243 246 249 252
          255 258 261 264 267 270
          273 276 279 282 285 288
          291 294 297 300 303 306
          309 312 315 318 321 324
          327 330 333 336 339 342
          345 348 351 354 357 360
          363 366 369 372 375 378
          381 384 387 390 393 396
          399 402 405 408 411 414
          417 420 423 426 429 432
          435 438 441 444 447 450
          453 456 459 462 465 468
          471 474 477 480 483 486
          489 492 495 498 501 504
          507 510 513 516 519 522
          525 528 531 534 537 540
          543 546 549 552 555 558
        </DataArray>
      </Polys>
    </Piece>
  </PolyData>
</VTKFile>
