<?xml version="1.0"?>
<VTKFile type="PolyData" version="0.1" byte_order="LittleEndian" header_type="UInt32" compressor="vtkZLibDataCompressor">
  <PolyData>
    <Piece NumberOfPoints="87" NumberOfVerts="0" NumberOfLines="0" NumberOfStrips="0" NumberOfPolys="170">
      <PointData Normals="Normals">
        <DataArray type="Float32" Name="Normals" NumberOfComponents="3" format="ascii" RangeMin="0.9999994009258746" RangeMax="1.0000006785231494">
          0.5770279765129089 0.7935810089111328 -0.19304999709129333 0.869458019733429 0.4171069860458374 -0.2646990120410919
          0.6282209753990173 0.07207400351762772 -0.7746890187263489 0.7525259852409363 0.48940300941467285 0.4406700134277344
          0.17270900309085846 0.9622169733047485 0.2105019986629486 0.23889799416065216 0.6772840023040771 -0.6958550214767456
          0.9925040006637573 0.00991200003772974 -0.12180899828672409 0.6864190101623535 -0.5566970109939575 -0.4678860008716583
          0.2899180054664612 -0.598459005355835 -0.7468559741973877 -0.09240400046110153 -0.11046099662780762 -0.989575982093811
          0.901557981967926 -0.3724049925804138 -0.22024400532245636 -0.16418999433517456 0.46529701352119446 0.8697940111160278
          -0.13104400038719177 -0.12231200188398361 0.9838029742240906 0.5413339734077454 -0.09965600073337555 0.8348810076713562
          0.9572160243988037 -0.27791300415992737 0.08063499629497528 0.9138169884681702 -0.3878389894962311 0.12049700319766998
          0.945106029510498 -0.2695870101451874 0.18465299904346466 -0.006068999879062176 0.6524860262870789 -0.7577760219573975
          0.18930800259113312 0.9780610203742981 0.08694300055503845 -0.3118790090084076 0.22380800545215607 -0.9233859777450562
          0.20159299671649933 -0.9485629796981812 -0.24410699307918549 0.6676070094108582 -0.743353009223938 0.04156399890780449
          -0.41343098878860474 -0.833856999874115 -0.3657290041446686 -0.8244510293006897 -0.35362499952316284 -0.4418480098247528
          -0.14682500064373016 0.3183630108833313 0.9365299940109253 -0.44590699672698975 -0.8942340016365051 -0.03888300061225891
          -0.7536829710006714 -0.5262410044670105 0.3937399983406067 -0.541513979434967 -0.6943870186805725 0.473908007144928
          -0.17406199872493744 -0.9152929782867432 0.3632360100746155 0.5028830170631409 -0.6866660118103027 0.5249760150909424
          0.7399719953536987 -0.47341498732566833 0.4778279960155487 0.8380550146102905 -0.48743000626564026 -0.24510399997234344
          0.7629449963569641 -0.6459529995918274 0.025689000263810158 -0.22245900332927704 0.14246700704097748 -0.964477002620697
          0.2787590026855469 0.577426016330719 -0.7673799991607666 0.03510800004005432 -0.34623000025749207 -0.9374920129776001
          0.03227299824357033 0.6597499847412109 0.7507920265197754 0.2705889940261841 0.962414026260376 0.023245999589562416
          -0.5663639903068542 -0.1755719929933548 -0.8052369952201843 0.38689300417900085 -0.847419023513794 -0.3635849952697754
          -0.3300909996032715 -0.7020530104637146 -0.6309999823570251 0.6735399961471558 -0.6024709939956665 -0.4282209873199463
          -0.5273799896240234 -0.6414200067520142 -0.5571799874305725 -0.2065880000591278 -0.6478559970855713 0.7332149744033813
          -0.6133360266685486 -0.554069995880127 -0.5628730058670044 0.15271900594234467 -0.9134330153465271 -0.37724998593330383
          -0.5329579710960388 -0.4738610088825226 -0.7010080218315125 -0.8877869844436646 -0.40718498826026917 -0.2145570069551468
          0.39399099349975586 -0.9177860021591187 0.04938700050115585 0.29755499958992004 -0.6152740120887756 -0.7300000190734863
          0.7263360023498535 -0.5326380133628845 -0.4344339966773987 0.6495789885520935 0.6675130128860474 -0.36396899819374084
          0.28826799988746643 -0.28149399161338806 -0.9152389764785767 0.36668598651885986 0.08863499760627747 -0.9261130094528198
          0.5457249879837036 -0.300119012594223 -0.7823759913444519 0.26819100975990295 0.1844010055065155 0.9455530047416687
          0.4026679992675781 0.9124780297279358 0.07241000235080719 0.25685998797416687 -0.9500020146369934 0.17753900587558746
          0.39177799224853516 -0.6619300246238708 -0.6390290260314941 0.32244500517845154 0.9231290221214294 0.20943200588226318
          -0.14497099816799164 0.9842439889907837 -0.10122399777173996 0.12032099813222885 0.9023560285568237 -0.4138549864292145
          0.23102900385856628 0.6597769856452942 -0.7150670289993286 0.5065420269966125 -0.014014000073075294 -0.8621010184288025
          0.1603430062532425 -0.8378859758377075 -0.5217639803886414 0.16364899277687073 -0.5326399803161621 -0.8303689956665039
          0.48402100801467896 -0.289016991853714 -0.8259490132331848 -0.8132269978523254 0.5551760196685791 0.17447200417518616
          -0.19246800243854523 -0.1491589993238449 0.9699010252952576 0.20108899474143982 -0.5389620065689087 0.8179749846458435
          0.4400950074195862 -0.6753060221672058 0.5918430089950562 0.27477899193763733 -0.8818039894104004 0.38329899311065674
          0.2670130133628845 -0.940097987651825 0.21194200217723846 0.07294700294733047 -0.9945039749145508 -0.07509999722242355
          -0.6711050271987915 0.6589850187301636 -0.3396419882774353 -0.7318390011787415 0.5470489859580994 -0.40638500452041626
          -0.4021889865398407 -0.013860000297427177 -0.9154520034790039 0.10923100262880325 -0.37907999753952026 -0.9188939929008484
          -0.1934559941291809 -0.7018439769744873 -0.685558021068573 -0.9500889778137207 0.10211300104856491 0.2947950065135956
          0.2976889908313751 -0.7662460207939148 0.5694270133972168 -0.19521300494670868 -0.7402610182762146 0.6433550119400024
          0.26076000928878784 -0.9172419905662537 0.30111798644065857 -0.21514299511909485 -0.9257929921150208 0.31084001064300537
          -0.6024219989776611 -0.7697250247001648 -0.21121199429035187 -0.9134929776191711 0.03064800053834915 -0.4056980013847351
          -0.8893089890480042 -0.3629710078239441 0.2781740128993988
          <InformationKey name="L2_NORM_RANGE" location="vtkDataArray" length="2">
            <Value index="0">
              0.99999940093
            </Value>
            <Value index="1">
              1.0000006785
            </Value>
          </InformationKey>
        </DataArray>
      </PointData>
      <CellData>
      </CellData>
      <Points>
        <DataArray type="Float32" Name="Points" NumberOfComponents="3" format="ascii" RangeMin="0.04284792344577875" RangeMax="0.05740619612500469">
          -0.0065020001493394375 0.0013889999827370048 0.044319998472929 -0.0057680001482367516 0.0006680000224150717 0.04434699937701225
          -0.0065460000187158585 -0.0021150000393390656 0.04255500063300133 -0.005913999862968922 -0.0000670000008540228 0.04663800075650215
          -0.008553000167012215 0.0020920000970363617 0.044916000217199326 -0.007720999885350466 0.0019249999895691872 0.04380900040268898
          -0.005357999820262194 -0.0012339999666437507 0.044815998524427414 -0.006945999804884195 -0.003441999899223447 0.042725998908281326
          -0.0078039998188614845 -0.003653000108897686 0.04216200113296509 -0.00963400024920702 -0.0032130000181496143 0.04162700101733208
          -0.005733000114560127 -0.002428000094369054 0.04431400075554848 -0.012070000171661377 -0.0006709999870508909 0.04952000081539154
          -0.009684000164270401 -0.0014990000054240227 0.05000999942421913 -0.0069149998016655445 -0.0027830000035464764 0.04980599880218506
          -0.006238999776542187 -0.002887000096961856 0.048114001750946045 -0.006027999799698591 -0.0021460000425577164 0.047196999192237854
          -0.005528000183403492 -0.0017790000420063734 0.045965999364852905 -0.011270999908447266 0.0016499999910593033 0.04329700022935867
          -0.013330000452697277 0.002196999965235591 0.04464200139045715 -0.010793999768793583 0.0007280000136233866 0.042805999517440796
          -0.007903000339865685 -0.004149999935179949 0.0428990013897419 -0.006527999881654978 -0.0035989999305456877 0.044110000133514404
          -0.009499000385403633 -0.0037249999586492777 0.0423399992287159 -0.01015700027346611 -0.002655999967828393 0.04189300164580345
          -0.016078000888228416 0.0024999999441206455 0.04675599932670593 -0.01614600047469139 -0.0016080000204965472 0.045635998249053955
          -0.012556999921798706 -0.0037769998889416456 0.04772699996829033 -0.011373000219464302 -0.006016999948769808 0.047157999128103256
          -0.009848999790847301 -0.006591999903321266 0.047352999448776245 -0.0075079998932778835 -0.00532899983227253 0.0484669990837574
          -0.006940000224858522 -0.004368999972939491 0.04896499961614609 -0.0064570000395178795 -0.0029100000392645597 0.04728899896144867
          -0.006345000118017197 -0.0026310000102967024 0.046737998723983765 -0.011332999914884567 0.0004720000142697245 0.04307600110769272
          -0.023361999541521072 0.003476999932900071 0.041019998490810394 -0.013736999593675137 0.00036100001307204366 0.04293400049209595
          -0.023434000089764595 0.004182000178843737 0.04569799825549126 -0.021053999662399292 0.00407399982213974 0.044422999024391174
          -0.010897000320255756 -0.0006849999772384763 0.04287299886345863 -0.008844000287353992 -0.004240000154823065 0.045910999178886414
          -0.009464000351727009 -0.004242999944835901 0.04569000005722046 -0.007127999793738127 -0.00342399999499321 0.046831998974084854
          -0.010811000131070614 -0.0026740001048892736 0.044906001538038254 -0.024362999945878983 -0.0008069999748840928 0.04387100040912628
          -0.012016000226140022 -0.004083000123500824 0.04682200029492378 -0.024299999698996544 -0.0007440000190399587 0.042555999010801315
          -0.011071999557316303 -0.005903000012040138 0.046250998973846436 -0.012276999652385712 -0.004910000134259462 0.047230999916791916
          -0.008744999766349792 -0.006432999856770039 0.047513000667095184 -0.009461999870836735 -0.006289999932050705 0.04631200060248375
          -0.0075240000151097775 -0.005377000197768211 0.047136999666690826 -0.028869999572634697 0.005915000103414059 0.041039999574422836
          -0.01942499913275242 0.0009660000214353204 0.041499000042676926 -0.025169000029563904 0.0011399999493733048 0.03948900103569031
          -0.02833300083875656 -0.0004039999912492931 0.03794100135564804 -0.02739500068128109 0.005243000108748674 0.04475200176239014
          -0.028224999085068703 0.006310999859124422 0.04327699914574623 -0.029848000034689903 -0.0019280000124126673 0.04079199954867363
          -0.025429999455809593 0.00042799999937415123 0.03952199965715408 -0.03136799857020378 0.008209999650716782 0.043441999703645706
          -0.031000999733805656 0.008462999947369099 0.041273001581430435 -0.030691999942064285 0.00808900035917759 0.040119998157024384
          -0.030635999515652657 0.007393999956548214 0.038860999047756195 -0.030799999833106995 0.000986000057309866 0.03550200164318085
          -0.03165299817919731 -0.001398000051267445 0.037675000727176666 -0.030628999695181847 -0.0003549999964889139 0.036045998334884644
          -0.030364999547600746 0.0004830000107176602 0.03600800037384033 -0.03256399929523468 0.006713000126183033 0.0455860011279583
          -0.03392200171947479 0.0035290000960230827 0.04617699980735779 -0.033121999353170395 -0.0004959999932907522 0.044210001826286316
          -0.031975001096725464 -0.0014720000326633453 0.04258099943399429 -0.03127399832010269 -0.001803999999538064 0.04174400120973587
          -0.032669998705387115 -0.0022780001163482666 0.04115299880504608 -0.03363899886608124 -0.0027759999502450228 0.04038099944591522
          -0.03130900114774704 0.007788000162690878 0.03997600078582764 -0.031223999336361885 0.007025999948382378 0.038892000913619995
          -0.03284899890422821 0.0016680000117048621 0.03543899953365326 -0.03110400028526783 0.00044999999227002263 0.035739999264478683
          -0.033348001539707184 -0.0008510000188834965 0.03646500036120415 -0.03465700149536133 0.0002300000051036477 0.044461000710725784
          -0.0328419990837574 -0.0018220000201836228 0.04302399978041649 -0.03459800034761429 -0.0019710001070052385 0.042955998331308365
          -0.0330049991607666 -0.0023769999388605356 0.041808001697063446 -0.034908000379800797 -0.002553999889642 0.0419280007481575
          -0.03537699952721596 -0.0024820000398904085 0.0410120002925396 -0.03443099930882454 -0.0002640000020619482 0.03687399998307228
          -0.03551900014281273 -0.0021589999087154865 0.04184899851679802
          <InformationKey name="L2_NORM_RANGE" location="vtkDataArray" length="2">
            <Value index="0">
              0.042847923446
            </Value>
            <Value index="1">
              0.057406196125
            </Value>
          </InformationKey>
        </DataArray>
      </Points>
      <Verts>
        <DataArray type="Int64" Name="connectivity" format="ascii" RangeMin="1e+299" RangeMax="-1e+299">
        </DataArray>
        <DataArray type="Int64" Name="offsets" format="ascii" RangeMin="1e+299" RangeMax="-1e+299">
        </DataArray>
      </Verts>
      <Lines>
        <DataArray type="Int64" Name="connectivity" format="ascii" RangeMin="1e+299" RangeMax="-1e+299">
        </DataArray>
        <DataArray type="Int64" Name="offsets" format="ascii" RangeMin="1e+299" RangeMax="-1e+299">
        </DataArray>
      </Lines>
      <Strips>
        <DataArray type="Int64" Name="connectivity" format="ascii" RangeMin="1e+299" RangeMax="-1e+299">
        </DataArray>
        <DataArray type="Int64" Name="offsets" format="ascii" RangeMin="1e+299" RangeMax="-1e+299">
        </DataArray>
      </Strips>
      <Polys>
        <DataArray type="Int32" Name="connectivity" format="ascii" RangeMin="0" RangeMax="86">
          0 1 2 3 0 4
          5 4 0 2 5 0
          1 0 3 6 2 1
          6 1 3 2 7 8
          9 5 2 2 8 9
          2 6 10 7 2 10
          11 3 4 3 11 12
          13 3 12 13 14 3
          14 15 3 3 15 16
          3 16 6 17 4 5
          4 17 18 4 18 11
          9 19 5 19 17 5
          10 6 16 8 7 20
          7 21 20 7 10 21
          20 22 8 9 8 22
          23 9 22 19 9 23
          10 16 21 11 24 25
          11 18 24 25 26 11
          12 11 26 12 27 28
          28 29 12 29 13 12
          12 26 27 29 30 13
          13 30 14 29 14 30
          15 14 31 31 14 29
          21 16 15 21 15 32
          15 31 32 19 33 17
          17 34 18 35 34 17
          35 17 33 36 24 18
          37 18 34 18 37 36
          38 33 19 23 38 19
          39 40 20 39 20 21
          20 40 22 21 32 41
          41 39 21 23 22 40
          42 23 40 38 23 42
          43 24 36 25 24 43
          40 25 42 26 25 44
          43 45 25 44 25 40
          25 45 35 25 35 42
          44 46 26 47 26 46
          26 47 27 27 47 46
          28 27 46 28 48 29
          28 46 49 49 48 28
          50 31 29 48 50 29
          32 31 41 31 50 41
          38 35 33 37 34 51
          52 34 35 34 52 53
          53 54 34 54 51 34
          45 52 35 38 42 35
          55 36 37 55 43 36
          37 51 56 37 56 55
          39 49 40 39 41 49
          40 49 46 46 44 40
          50 49 41 57 43 55
          43 57 45 58 45 57
          52 45 58 50 48 49
          56 51 59 51 60 59
          61 60 51 61 51 62
          63 62 51 63 51 54
          53 52 58 58 54 53
          64 54 57 54 58 57
          65 54 64 66 54 65
          63 54 66 55 59 67
          55 68 69 56 59 55
          68 55 67 70 55 69
          57 55 70 71 57 70
          72 57 71 57 72 73
          57 73 64 67 59 60
          60 61 74 74 67 60
          61 62 75 61 75 74
          76 75 62 63 76 62
          77 76 63 63 66 77
          64 73 78 65 64 76
          64 78 76 66 65 77
          65 76 77 68 67 79
          67 74 75 75 79 67
          68 79 69 80 69 81
          80 70 69 79 81 69
          80 82 70 82 71 70
          82 72 71 82 73 72
          82 83 73 73 83 84
          73 84 78 75 76 79
          85 76 78 76 85 79
          85 78 84 86 81 79
          79 85 86 81 82 80
          83 81 86 81 83 82
          83 86 84 86 85 84
        </DataArray>
        <DataArray type="Int32" Name="offsets" format="ascii" RangeMin="3" RangeMax="510">
          3 6 9 12 15 18
          21 24 27 30 33 36
          39 42 45 48 51 54
          57 60 63 66 69 72
          75 78 81 84 87 90
          93 96 99 102 105 108
          111 114 117 120 123 126
          129 132 135 138 141 144
          147 150 153 156 159 162
          165 168 171 174 177 180
          183 186 189 192 195 198
          201 204 207 210 213 216
          219 222 225 228 231 234
          237 240 243 246 249 252
          255 258 261 264 267 270
          273 276 279 282 285 288
          291 294 297 300 303 306
          309 312 315 318 321 324
          327 330 333 336 339 342
          345 348 351 354 357 360
          363 366 369 372 375 378
          381 384 387 390 393 396
          399 402 405 408 411 414
          417 420 423 426 429 432
          435 438 441 444 447 450
          453 456 459 462 465 468
          471 474 477 480 483 486
          489 492 495 498 501 504
          507 510
        </DataArray>
      </Polys>
    </Piece>
  </PolyData>
</VTKFile>
