<?xml version="1.0"?>
<VTKFile type="PolyData" version="0.1" byte_order="LittleEndian" header_type="UInt32" compressor="vtkZLibDataCompressor">
  <PolyData>
    <Piece NumberOfPoints="93" NumberOfVerts="0" NumberOfLines="0" NumberOfStrips="0" NumberOfPolys="182">
      <PointData Normals="Normals">
        <DataArray type="Float32" Name="Normals" NumberOfComponents="3" format="ascii" RangeMin="0.9999994902457419" RangeMax="1.0000005318329475">
          0.23221799731254578 0.5293880105018616 -0.8159800171852112 0.7959719896316528 0.2905600070953369 -0.5310400128364563
          0.21414299309253693 -0.2748450040817261 -0.9373379945755005 0.33776700496673584 0.9408590197563171 0.026429999619722366
          -0.3109019994735718 -0.03660599887371063 -0.949737012386322 0.023062000051140785 0.819096028804779 -0.5731930136680603
          0.9689139723777771 -0.2438260018825531 -0.04189300164580345 0.6438559889793396 -0.46133100986480713 -0.6104289889335632
          0.8825439810752869 0.4385710060596466 0.16962000727653503 -0.3299829959869385 -0.668487012386322 -0.6665109992027283
          0.182668998837471 -0.8682169914245605 -0.46133700013160706 -0.07051499933004379 0.7158129811286926 0.6947230100631714
          0.6814690232276917 0.663561999797821 0.30868399143218994 0.054954998195171356 0.9825069904327393 0.17793500423431396
          -0.6216599941253662 -0.43784400820732117 -0.6494849920272827 -0.024143999442458153 0.3098619878292084 -0.9504749774932861
          -0.8192059993743896 -0.45182299613952637 -0.353210985660553 0.9479799866676331 -0.3172770142555237 0.025856999680399895
          0.6437219977378845 -0.7597929835319519 -0.09130199998617172 -0.3817409873008728 -0.9218729734420776 0.06651099771261215
          0.17945200204849243 -0.9834319949150085 0.025647999718785286 -0.25556498765945435 0.16667300462722778 0.9523159861564636
          -0.4109790027141571 -0.24927400052547455 0.8769029974937439 -0.08519899845123291 -0.07502999901771545 0.9935349822044373
          0.5557609796524048 0.3456209897994995 0.7560930252075195 0.9614949822425842 -0.19139499962329865 0.19721800088882446
          0.2409289926290512 0.6604880094528198 0.7111319899559021 0.27171701192855835 0.8698949813842773 -0.4116469919681549
          -0.5372740030288696 -0.8366190195083618 -0.10679899901151657 0.03535500168800354 -0.788657009601593 -0.6138160228729248
          0.21945799887180328 0.0003129999968223274 -0.9756219983100891 0.4400300085544586 -0.8979650139808655 -0.005760000087320805
          0.28909599781036377 -0.8202970027923584 -0.493492990732193 0.762669026851654 -0.6071670055389404 -0.22289800643920898
          -0.23187099397182465 -0.9099259972572327 -0.3439050018787384 -0.1706629991531372 -0.431986004114151 0.8855860233306885
          -0.2978230118751526 -0.9389820098876953 0.17208600044250488 -0.711542010307312 -0.684499979019165 0.15864400565624237
          -0.7001590132713318 -0.6678699851036072 0.25244200229644775 -0.1758659929037094 -0.5403289794921875 0.8228710293769836
          0.4979020059108734 -0.7420700192451477 0.4488050043582916 0.5310590267181396 -0.33656901121139526 0.7776229977607727
          0.3816179931163788 0.9226959943771362 0.0547650009393692 -0.4611220061779022 0.8871409893035889 -0.018650000914931297
          0.3056809902191162 0.9516199827194214 0.03127799928188324 -0.07390899956226349 0.9595350027084351 0.27171799540519714
          -0.7339159846305847 0.6762599945068359 0.06356099992990494 -0.5359299778938293 0.5628629922866821 0.6292570233345032
          0.2398039996623993 0.01903199963271618 0.9706349968910217 0.2758510112762451 -0.136012002825737 0.9515290260314941
          0.5613629817962646 0.6970900297164917 -0.44602400064468384 0.31826600432395935 0.17466400563716888 -0.931771993637085
          -0.3186129927635193 -0.8802890181541443 -0.35153499245643616 0.0021389999892562628 -0.9785559773445129 0.2059680074453354
          0.26134198904037476 -0.7064390182495117 -0.6577569842338562 0.07944999635219574 -0.9539030194282532 0.28940901160240173
          -0.28614598512649536 -0.9265199899673462 0.24429799616336823 -0.31112900376319885 -0.7225250005722046 -0.6173779964447021
          -0.28412100672721863 -0.6101120114326477 -0.7396199703216553 0.013291999697685242 -0.5815160274505615 0.8134260177612305
          -0.534857988357544 -0.7199519872665405 -0.4422619938850403 -0.6246640086174011 -0.43031200766563416 -0.6516339778900146
          0.40188300609588623 0.8836240172386169 -0.24020500481128693 -0.6778650283813477 0.5422059893608093 -0.4964990019798279
          -0.26747700572013855 0.8819929957389832 -0.3880009949207306 -0.7720140218734741 0.507561981678009 -0.38258999586105347
          -0.7946339845657349 0.5913410186767578 -0.1373790055513382 -0.8973159790039062 0.11238999664783478 0.4268389940261841
          -0.4615060091018677 0.2825390100479126 0.8409420251846313 -0.5658659934997559 0.018743999302387238 0.824284017086029
          0.2590700089931488 -0.43472999334335327 0.862492024898529 0.3873730003833771 -0.5876399874687195 0.7103670239448547
          0.6671379804611206 0.1881140023469925 -0.7207919955253601 0.38433700799942017 0.6519380211830139 -0.6536530256271362
          0.5552970170974731 -0.3264319896697998 -0.7649099826812744 0.15430499613285065 -0.8985750079154968 0.4107950031757355
          0.3184039890766144 -0.8932939767837524 -0.3172439932823181 -0.08120699971914291 0.34090501070022583 -0.9365839958190918
          -0.4091840088367462 0.0971359983086586 -0.9072669744491577 -0.529712975025177 -0.4558899998664856 -0.7152400016784668
          -0.7228170037269592 0.4403949975967407 -0.5325289964675903 -0.7677090167999268 0.08295000344514847 -0.6354069709777832
          -0.5860270261764526 0.801268994808197 -0.12058600038290024 -0.8467100262641907 0.28670600056648254 -0.44819900393486023
          -0.5563709735870361 -0.8169050216674805 0.15204399824142456 -0.9773839712142944 0.1716119945049286 -0.12357400357723236
          -0.16059699654579163 -0.7264230251312256 0.6682199835777283 0.23771800100803375 -0.9184010028839111 0.3162750005722046
          0.5091680288314819 -0.24155700206756592 -0.8260740041732788 -0.37315699458122253 -0.8522729873657227 -0.36658599972724915
          0.26253700256347656 -0.8041409850120544 -0.5333219766616821 0.025666000321507454 -0.5782740116119385 -0.815438985824585
          -0.9494659900665283 0.07324100285768509 -0.3052060008049011
          <InformationKey name="L2_NORM_RANGE" location="vtkDataArray" length="2">
            <Value index="0">
              0.99999949025
            </Value>
            <Value index="1">
              1.0000005318
            </Value>
          </InformationKey>
        </DataArray>
      </PointData>
      <CellData>
      </CellData>
      <Points>
        <DataArray type="Float32" Name="Points" NumberOfComponents="3" format="ascii" RangeMin="0.0045794209430673" RangeMax="0.03954840130275779">
          0.03649099916219711 -0.0007919999770820141 0.002177000045776367 0.03860799968242645 -0.0018980000168085098 0.0032319999299943447
          0.035569000989198685 -0.005690000019967556 0.0018570000538602471 0.03748499974608421 -0.0007179999956861138 0.003898999886587262
          0.03342900052666664 -0.003932000137865543 0.0017719999887049198 0.03379200026392937 -0.0005130000063218176 0.0029800001066178083
          0.03891399875283241 -0.0036180000752210617 0.004832000005990267 0.03749600052833557 -0.005160000175237656 0.002583000110462308
          0.03861299902200699 -0.0018629999831318855 0.005640000104904175 0.03380199894309044 -0.0066200001165270805 0.0024339999072253704
          0.03482099995017052 -0.006808999925851822 0.0027020000852644444 0.03295399993658066 -0.0020099999383091927 0.01090100035071373
          0.03721199929714203 -0.001908999984152615 0.009228999726474285 0.027470000088214874 0.000375000003259629 0.00684100016951561
          0.03248300030827522 -0.0036639999598264694 0.0028059999458491802 0.03226099908351898 -0.0011709999525919557 0.0022140000946819782
          0.03322000056505203 -0.005987000185996294 0.0025259999092668295 0.037932999432086945 -0.0037950000260025263 0.008894000202417374
          0.03695699945092201 -0.006397000048309565 0.003607999999076128 0.0339680016040802 -0.00685499981045723 0.0035039999056607485
          0.03587999939918518 -0.007023000158369541 0.004255000036209822 0.024581000208854675 -0.0019970000721514225 0.008585000410676003
          0.03143100067973137 -0.004288000054657459 0.010966000147163868 0.03474399819970131 -0.004126000218093395 0.012280999682843685
          0.03732199966907501 -0.0034630000591278076 0.01202400028705597 0.037675999104976654 -0.004906999878585339 0.010978000238537788
          0.010397999547421932 0.0033569999504834414 0.00481100007891655 0.022576000541448593 0.0010860000038519502 0.002331000054255128
          0.032565001398324966 -0.0048790001310408115 0.005872000008821487 0.02700899913907051 -0.0026149998884648085 0.0024369999300688505
          0.022064000368118286 -0.0015709999715909362 0.0010489999549463391 0.03599800169467926 -0.005836000200361013 0.007946999743580818
          0.034717999398708344 -0.007821000181138515 0.00889699999243021 0.036695998162031174 -0.006750000175088644 0.009705999866127968
          0.03446999937295914 -0.006095999851822853 0.007416999898850918 0.015922000631690025 -0.003834000090137124 0.005863000173121691
          0.026427999138832092 -0.003894000081345439 0.008717999793589115 0.030293000862002373 -0.004991000052541494 0.00966500025242567
          0.031237000599503517 -0.007009000051766634 0.00950700044631958 0.03513500094413757 -0.0072929998859763145 0.011144000105559826
          0.03636400029063225 -0.007046999875456095 0.011037999764084816 0.03717200085520744 -0.005266000051051378 0.011796999722719193
          0.008891000412404537 0.005121999885886908 0.0015450000064447522 0.007379000075161457 0.0053079999051988125 0.0018149999668821692
          0.013485999777913094 0.0032919999212026596 0.0025480000767856836 0.006444000173360109 0.004832000005990267 0.005018000025302172
          0.005872000008821487 0.004269000142812729 0.006132000125944614 0.004875999875366688 0.0029899999499320984 0.00710600009188056
          0.005080000031739473 0.0015699999639764428 0.007420000154525042 0.008750000037252903 -0.00016500000492669642 0.005526999942958355
          0.009813000448048115 0.0038850000128149986 0.000048000001697801054 0.019703000783920288 0.0001990000018849969 0.0006169999833218753
          0.03240299969911575 -0.004972999915480614 0.006829999852925539 0.015876999124884605 -0.004447000101208687 0.00418699998408556
          0.010955999605357647 -0.00392800010740757 -0.0010499999625608325 0.03426799923181534 -0.007997999899089336 0.010200999677181244
          0.03305799886584282 -0.00785799976438284 0.009882999584078789 0.03265500068664551 -0.007501000072807074 0.008503000251948833
          0.032228998839855194 -0.005568999797105789 0.007797999773174524 0.009755999781191349 -0.0035620001144707203 0.0047980002127587795
          0.031252000480890274 -0.005545999854803085 0.008341999724507332 0.03176100179553032 -0.006471999920904636 0.008427999913692474
          0.008721999824047089 0.0050760000012815 -0.0009720000089146197 0.007447999902069569 0.0041600000113248825 -0.002389000030234456
          0.007718000095337629 0.005003000143915415 -0.0013210000470280647 0.0048409998416900635 -0.0025859999004751444 -0.0038040000945329666
          0.0035359999164938927 -0.002650999929755926 0.0012000000569969416 0.0020940001122653484 -0.00393400015309453 0.005783999804407358
          0.004466000013053417 0.00215999991632998 0.00735800014808774 0.003621000098064542 -0.0005510000046342611 0.007253000047057867
          0.005805999971926212 -0.003708000062033534 0.006250999867916107 0.006800999864935875 -0.0034370000939816236 0.005495999939739704
          0.010639999993145466 0.0006140000186860561 -0.0019409999949857593 0.00850099977105856 0.0034910000395029783 -0.0035459999926388264
          0.010088999755680561 -0.0031369999051094055 -0.0019529999699443579 0.007565000094473362 -0.003957999870181084 0.004612000193446875
          0.00889899954199791 -0.004226999823004007 -0.002256999956443906 0.00814600009471178 0.0011129999766126275 -0.004755999892950058
          0.0050479997880756855 -0.0031510000117123127 -0.004637999925762415 0.00430000014603138 -0.0036150000523775816 -0.00395999988541007
          0.003963999915868044 -0.003490000031888485 -0.0032790000550448895 0.0033309999853372574 -0.0038950000889599323 -0.0027979998849332333
          0.002065999899059534 -0.004135000053793192 0.0006339999963529408 0.0022539999336004257 -0.004253999795764685 -0.0013849999522790313
          0.0019020000472664833 -0.004683000035583973 0.004989000037312508 0.0015069999499246478 -0.004495999775826931 0.0011820000363513827
          0.0027260000351816416 -0.004647000227123499 0.005758000072091818 0.00533499987795949 -0.0047079999931156635 0.0050200000405311584
          0.008239000104367733 -0.002761000068858266 -0.004705999977886677 0.003654999891296029 -0.005022000055760145 -0.0022060000337660313
          0.007841999642550945 -0.0035290000960230827 -0.004437000025063753 0.007023000158369541 -0.0034229999873787165 -0.004772999789565802
          0.0018739999504759908 -0.004337000194936991 -0.000547999981790781
          <InformationKey name="L2_NORM_RANGE" location="vtkDataArray" length="2">
            <Value index="0">
              0.0045794209431
            </Value>
            <Value index="1">
              0.039548401303
            </Value>
          </InformationKey>
        </DataArray>
      </Points>
      <Verts>
        <DataArray type="Int64" Name="connectivity" format="ascii" RangeMin="1e+299" RangeMax="-1e+299">
        </DataArray>
        <DataArray type="Int64" Name="offsets" format="ascii" RangeMin="1e+299" RangeMax="-1e+299">
        </DataArray>
      </Verts>
      <Lines>
        <DataArray type="Int64" Name="connectivity" format="ascii" RangeMin="1e+299" RangeMax="-1e+299">
        </DataArray>
        <DataArray type="Int64" Name="offsets" format="ascii" RangeMin="1e+299" RangeMax="-1e+299">
        </DataArray>
      </Lines>
      <Strips>
        <DataArray type="Int64" Name="connectivity" format="ascii" RangeMin="1e+299" RangeMax="-1e+299">
        </DataArray>
        <DataArray type="Int64" Name="offsets" format="ascii" RangeMin="1e+299" RangeMax="-1e+299">
        </DataArray>
      </Strips>
      <Polys>
        <DataArray type="Int32" Name="connectivity" format="ascii" RangeMin="0" RangeMax="92">
          0 1 2 3 1 0
          4 0 2 4 5 0
          3 0 5 6 7 1
          7 2 1 1 3 8
          6 1 8 4 2 9
          2 10 9 10 2 7
          3 11 12 3 12 8
          3 5 13 13 11 3
          4 14 15 5 4 15
          16 14 4 9 16 4
          13 5 15 8 17 6
          6 17 18 18 7 6
          7 18 10 12 17 8
          19 16 9 9 10 19
          10 18 20 10 20 19
          11 13 21 22 23 11
          21 22 11 11 24 12
          23 24 11 17 12 25
          25 12 24 26 13 27
          21 13 26 27 13 15
          14 28 29 14 16 28
          29 15 14 15 29 30
          15 30 27 19 28 16
          31 17 32 33 32 17
          17 31 18 33 17 25
          31 20 18 28 19 34
          20 31 19 31 34 19
          21 35 36 36 22 21
          21 26 35 36 37 22
          22 38 39 37 38 22
          23 22 39 40 41 23
          39 40 23 23 41 24
          25 24 41 40 25 41
          40 33 25 26 42 43
          27 44 26 44 42 26
          43 45 26 26 45 46
          46 47 26 47 48 26
          49 26 48 26 49 35
          50 27 51 27 50 44
          51 27 30 29 28 36
          52 36 28 34 52 28
          53 29 36 29 53 54
          54 30 29 51 30 54
          31 32 34 32 40 55
          55 56 32 56 57 32
          33 40 32 32 57 58
          32 58 34 52 34 58
          35 59 53 35 53 36
          49 59 35 36 58 60
          37 36 60 52 58 36
          60 61 37 37 61 38
          38 56 39 61 57 38
          56 38 57 40 39 55
          39 56 55 44 50 42
          50 62 42 62 43 42
          43 46 45 63 43 64
          64 43 62 46 43 65
          43 63 65 46 66 67
          67 47 46 46 65 66
          47 68 48 69 68 47
          69 47 67 69 48 68
          48 69 70 48 70 49
          70 71 49 49 71 59
          51 72 50 72 73 50
          73 62 50 72 51 74
          51 54 74 75 53 59
          53 75 54 74 54 76
          76 54 75 61 58 57
          61 60 58 71 75 59
          64 62 73 63 77 65
          64 73 63 73 77 63
          78 65 77 78 79 65
          79 80 65 81 65 80
          82 65 83 81 83 65
          65 82 66 84 67 66
          66 85 84 82 85 66
          67 70 69 67 86 70
          86 67 84 86 87 70
          70 87 71 87 75 71
          73 72 77 77 72 88
          88 72 74 88 74 76
          75 87 76 89 76 84
          87 84 76 76 89 79
          76 79 90 90 88 76
          77 88 78 78 91 79
          88 91 78 79 89 81
          91 90 79 79 81 80
          83 81 89 83 92 82
          82 92 85 89 92 83
          84 87 86 89 84 85
          92 89 85 90 91 88
        </DataArray>
        <DataArray type="Int32" Name="offsets" format="ascii" RangeMin="3" RangeMax="546">
          3 6 9 12 15 18
          21 24 27 30 33 36
          39 42 45 48 51 54
          57 60 63 66 69 72
          75 78 81 84 87 90
          93 96 99 102 105 108
          111 114 117 120 123 126
          129 132 135 138 141 144
          147 150 153 156 159 162
          165 168 171 174 177 180
          183 186 189 192 195 198
          201 204 207 210 213 216
          219 222 225 228 231 234
          237 240 243 246 249 252
          255 258 261 264 267 270
          273 276 279 282 285 288
          291 294 297 300 303 306
          309 312 315 318 321 324
          327 330 333 336 339 342
          345 348 351 354 357 360
          363 366 369 372 375 378
          381 384 387 390 393 396
          399 402 405 408 411 414
          417 420 423 426 429 432
          435 438 441 444 447 450
          453 456 459 462 465 468
          471 474 477 480 483 486
          489 492 495 498 501 504
          507 510 513 516 519 522
          525 528 531 534 537 540
          543 546
        </DataArray>
      </Polys>
    </Piece>
  </PolyData>
</VTKFile>
