<?xml version="1.0"?>
<VTKFile type="PolyData" version="0.1" byte_order="LittleEndian" header_type="UInt32" compressor="vtkZLibDataCompressor">
  <PolyData>
    <Piece NumberOfPoints="58" NumberOfVerts="0" NumberOfLines="0" NumberOfStrips="0" NumberOfPolys="65">
      <PointData Normals="Normals">
        <DataArray type="Float32" Name="Normals" NumberOfComponents="3" format="ascii" RangeMin="0.9999995685983476" RangeMax="1.0000006571224787">
          -0.8075820207595825 -0.20191699266433716 -0.55411297082901 -0.3420419991016388 -0.7721099853515625 -0.5355870127677917
          -0.5259490013122559 -0.8478419780731201 -0.06738799810409546 -0.9094200134277344 -0.22068899869918823 -0.3524929881095886
          -0.5373479723930359 0.14190000295639038 -0.8313369750976562 0.0536470003426075 -0.04440400004386902 -0.9975720047950745
          -0.8689150214195251 0.08818099647760391 -0.48704299330711365 0.30886200070381165 -0.9325829744338989 -0.1868000030517578
          0.003889000043272972 -0.9320269823074341 0.36236900091171265 0.6039220094680786 -0.21425199508666992 -0.7677069902420044
          -0.7973309755325317 -0.5135089755058289 0.31713101267814636 -0.9691320061683655 -0.01524099987000227 -0.246069997549057
          0.10896000266075134 -0.61558997631073 0.7804980278015137 -0.36474698781967163 0.3017829954624176 -0.880843997001648
          0.1002030000090599 0.4363110065460205 -0.894199013710022 0.45599400997161865 0.535647988319397 -0.710739016532898
          -0.7339980006217957 0.29624199867248535 -0.6111360192298889 -0.9133970141410828 0.277538001537323 -0.29778799414634705
          -0.9573500156402588 0.13522300124168396 -0.2553330063819885 -0.9805200099945068 0.03553500026464462 -0.1931769996881485
          0.590054988861084 -0.5867289900779724 -0.5546020269393921 0.3579689860343933 -0.4948570132255554 0.7918170094490051
          0.6383810043334961 -0.22193999588489532 -0.7370290160179138 0.3286390006542206 -0.1987529993057251 0.9233059883117676
          0.43371298909187317 0.2680389881134033 -0.8602610230445862 -0.8019300103187561 -0.06273499876260757 0.5941150188446045
          0.017698999494314194 -0.09088800102472305 0.9957039952278137 0.47166699171066284 -0.0493680015206337 0.8803939819335938
          -0.37972599267959595 0.6285269856452942 -0.6787949800491333 0.349588006734848 0.8123769760131836 -0.4667240083217621
          0.7072409987449646 0.613228976726532 -0.3517970144748688 -0.7497040033340454 0.6534510254859924 -0.10462299734354019
          -0.7985879778862 0.3551129996776581 0.4859539866447449 0.7109910249710083 0.15454499423503876 -0.6860089898109436
          0.5675449967384338 -0.05897599831223488 -0.82122802734375 0.33359000086784363 0.09751199930906296 -0.9376620054244995
          0.4551590085029602 -0.13518700003623962 -0.8800879716873169 0.07293400168418884 -0.5056440234184265 0.8596540093421936
          0.34379398822784424 0.7931089997291565 -0.502776026725769 0.118306003510952 -0.31008899211883545 0.9433180093765259
          -0.0977960005402565 0.705390989780426 0.7020390033721924 0.1324310004711151 0.28552699089050293 0.9491770267486572
          0.628400981426239 -0.01837499998509884 0.7776730060577393 0.1081790030002594 -0.35791701078414917 0.9274659752845764
          0.42935898900032043 0.8598849773406982 0.2761310040950775 0.8477889895439148 0.3032270073890686 0.43509599566459656
          0.14185599982738495 0.03748200088739395 0.9891769886016846 0.9826750159263611 0.17836999893188477 0.05033399909734726
          0.9430209994316101 -0.24765899777412415 -0.22221000492572784 0.8293780088424683 0.34981998801231384 0.4356119930744171
          0.7600669860839844 -0.4888719916343689 -0.42813798785209656 0.6467639803886414 -0.6875069737434387 -0.3301970064640045
          0.47769200801849365 -0.8376479744911194 0.2648710012435913 0.27999600768089294 -0.6710299849510193 0.6865280270576477
          0.5488970279693604 0.12247999757528305 0.8268679976463318 0.2832599878311157 -0.6088320016860962 0.7410039901733398
          0.37255799770355225 -0.33337199687957764 0.8660619854927063 0.8963890075683594 -0.3502109944820404 0.27173399925231934
          <InformationKey name="L2_NORM_RANGE" location="vtkDataArray" length="2">
            <Value index="0">
              0.9999995686
            </Value>
            <Value index="1">
              1.0000006571
            </Value>
          </InformationKey>
        </DataArray>
      </PointData>
      <CellData>
      </CellData>
      <Points>
        <DataArray type="Float32" Name="Points" NumberOfComponents="3" format="ascii" RangeMin="0.00668961005082403" RangeMax="0.017846056612606093">
          -0.004228999838232994 -0.00482900021597743 -0.005348999984562397 -0.0028649999294430017 -0.007087999954819679 -0.0043739997781813145
          -0.006566000171005726 -0.006002999842166901 0.001572999986819923 -0.006273000035434961 -0.003628999926149845 -0.0010969999711960554
          -0.0010819999733939767 -0.0007699999841861427 -0.008076000027358532 0.001133000012487173 -0.004455000162124634 -0.009774000383913517
          -0.00547399977222085 0.0010470000561326742 -0.003700000001117587 0.00661400007084012 -0.007031999994069338 -0.004327999893575907
          0.004772999789565802 -0.005535999778658152 0.0032059999648481607 0.00710600009188056 -0.004000999964773655 -0.005876000039279461
          -0.0075610000640153885 -0.00596599979326129 0.005752999801188707 -0.006930999923497438 -0.0018769999733194709 0.0002749999985098839
          0.002732000080868602 -0.004935000091791153 0.007019999902695417 -0.0015279999934136868 0.0035810000263154507 -0.006517999805510044
          0.003826000029221177 0.00165200000628829 -0.006397000048309565 0.00788700021803379 0.0019490000559017062 -0.0053460001945495605
          -0.004954000003635883 0.002920999890193343 -0.0036949999630451202 -0.006087999790906906 0.003720999928191304 -0.0012009999481961131
          -0.0067529999651014805 0.0025770000647753477 0.0014609999489039183 -0.006897000130265951 0.0004360000020824373 0.0010509999701753259
          0.009806999936699867 -0.005805999971926212 0.000598000013269484 0.008344000205397606 -0.0038419999182224274 0.0033579999580979347
          0.010635999962687492 -0.0014100000262260437 -0.0029879999347031116 0.005245999898761511 -0.002067999914288521 0.007247000001370907
          0.010476999916136265 0.003011000109836459 -0.002383999992161989 -0.0075690001249313354 -0.0005879999953322113 0.007151000201702118
          0.00215999991632998 0.004143999889492989 0.008957999758422375 0.005470000207424164 0.0011279999744147062 0.007857000455260277
          -0.004844999872148037 0.006916999816894531 -0.0022849999368190765 0.0065460000187158585 0.005541000049561262 -0.00040499999886378646
          0.007782000117003918 0.005262000020593405 0.00060299999313429 -0.004774999804794788 0.01053600013256073 0.008601999841630459
          -0.008120999671518803 0.004453999921679497 0.007296000141650438 0.013667000457644463 -0.0011360000353306532 -0.0014929999597370625
          0.012192999944090843 -0.006238000001758337 0.00203999993391335 0.011770999990403652 -0.0052089998498559 0.002615999896079302
          0.011350000277161598 -0.00418000016361475 0.0031930000986903906 0.01013999991118908 -0.0015750000020489097 0.0029529999010264874
          0.014585999771952629 0.0026569999754428864 -0.00023600000713486224 0.009727000258862972 0.0003060000017285347 0.0030700000934302807
          0.011796999722719193 0.0038189999759197235 0.00007699999696342275 0.0037700000684708357 0.00649499986320734 0.009073000401258469
          0.006819999776780605 0.004151000175625086 0.007664999924600124 0.010088999755680561 0.0020580000709742308 0.002747999969869852
          0.004563999827951193 0.012107999995350838 0.006198999937623739 0.007044000085443258 0.007240000180900097 0.004831000231206417
          0.011672000400722027 0.0028989999555051327 0.0017679999582469463 0.017490999773144722 0.0002460000105202198 0.0029150000773370266
          0.01742600090801716 -0.0026050000451505184 0.0026700000744313 0.017280999571084976 0.00004199999966658652 0.004455000162124634
          0.016891000792384148 -0.0034809999633580446 0.0027209999971091747 0.016356000676751137 -0.004358000122010708 0.0027719999197870493
          0.01548799965530634 -0.005206999834626913 0.003967999946326017 0.015637999400496483 -0.004557999782264233 0.004542000126093626
          0.016712000593543053 -0.0013150000013411045 0.005508999805897474 0.015785999596118927 -0.003907000180333853 0.005117000080645084
          0.01630299910902977 -0.002997000003233552 0.005534000229090452 0.016536999493837357 -0.002814000006765127 0.004019999876618385
          <InformationKey name="L2_NORM_RANGE" location="vtkDataArray" length="2">
            <Value index="0">
              0.0066896100508
            </Value>
            <Value index="1">
              0.017846056613
            </Value>
          </InformationKey>
        </DataArray>
      </Points>
      <Verts>
        <DataArray type="Int64" Name="connectivity" format="ascii" RangeMin="1e+299" RangeMax="-1e+299">
        </DataArray>
        <DataArray type="Int64" Name="offsets" format="ascii" RangeMin="1e+299" RangeMax="-1e+299">
        </DataArray>
      </Verts>
      <Lines>
        <DataArray type="Int64" Name="connectivity" format="ascii" RangeMin="1e+299" RangeMax="-1e+299">
        </DataArray>
        <DataArray type="Int64" Name="offsets" format="ascii" RangeMin="1e+299" RangeMax="-1e+299">
        </DataArray>
      </Lines>
      <Strips>
        <DataArray type="Int64" Name="connectivity" format="ascii" RangeMin="1e+299" RangeMax="-1e+299">
        </DataArray>
        <DataArray type="Int64" Name="offsets" format="ascii" RangeMin="1e+299" RangeMax="-1e+299">
        </DataArray>
      </Strips>
      <Polys>
        <DataArray type="Int32" Name="connectivity" format="ascii" RangeMin="0" RangeMax="57">
          0 1 2 3 4 5
          1 0 0 3 6 4
          0 6 1 7 8 2
          5 9 7 1 3 2
          10 11 2 8 12 10
          3 11 6 13 14 5
          4 13 4 6 14 15
          9 5 16 13 6 17
          16 6 18 17 6 19
          18 6 11 19 6 7
          20 21 8 9 22 20
          7 8 21 23 12 15
          24 22 9 11 10 25
          19 10 12 26 25 12
          23 27 26 16 28 14
          13 28 29 15 14 29
          30 24 15 17 31 28
          16 18 32 31 17 19
          25 32 18 22 33 34
          20 34 35 36 21 20
          21 36 37 23 24 38
          33 22 23 37 39 27
          30 40 38 24 25 26
          41 32 26 27 42 41
          27 39 43 42 31 44
          29 28 44 45 30 29
          45 46 40 30 32 41
          44 31 33 47 48 34
          38 49 47 33 34 48
          50 35 35 50 51 36
          36 51 52 37 37 52
          53 39 40 54 49 38
          39 53 55 43 46 56
          54 40 41 42 45 44
          42 43 46 45 43 55
          56 46 57 48 47 57
          47 49 57 50 48 57
          49 54 57 51 50 57
          52 51 57 53 52 57
          55 53 57 54 56 57
          56 55
        </DataArray>
        <DataArray type="Int32" Name="offsets" format="ascii" RangeMin="4" RangeMax="242">
          4 8 11 14 18 22
          26 30 33 37 40 44
          47 50 53 56 59 63
          67 71 75 79 83 87
          91 95 99 103 107 111
          115 120 124 128 132 136
          140 144 148 152 156 160
          164 168 172 176 180 184
          188 192 196 200 204 208
          212 215 218 221 224 227
          230 233 236 239 242
        </DataArray>
      </Polys>
    </Piece>
  </PolyData>
</VTKFile>
