<?xml version="1.0"?>
<VTKFile type="PolyData" version="0.1" byte_order="LittleEndian" header_type="UInt32" compressor="vtkZLibDataCompressor">
  <PolyData>
    <Piece NumberOfPoints="47" NumberOfVerts="0" NumberOfLines="0" NumberOfStrips="0" NumberOfPolys="54">
      <PointData Normals="Normals">
        <DataArray type="Float32" Name="Normals" NumberOfComponents="3" format="ascii" RangeMin="0.9999994331498852" RangeMax="1.0000005540719739">
          0.5104590058326721 -0.6452029943466187 -0.5684589743614197 0.31265100836753845 -0.65972900390625 -0.6833789944648743
          0.22462299466133118 -0.3576129972934723 -0.906453013420105 0.3566339910030365 -0.15220999717712402 -0.9217619895935059
          0.3213280141353607 -0.6926649808883667 -0.6457279920578003 -0.04805300012230873 -0.5254480242729187 -0.8494669795036316
          0.6991980075836182 -0.15237799286842346 -0.6984999775886536 0.08308800309896469 -0.8535919785499573 -0.5142729878425598
          -0.011756000109016895 -0.4141710102558136 -0.9101229906082153 0.05524300038814545 -0.9582859873771667 -0.2804209887981415
          0.2052440047264099 -0.041074998676776886 -0.9778479933738708 0.28334999084472656 -0.003469000104814768 -0.9590100049972534
          0.11668699979782104 0.19987699389457703 -0.9728479981422424 0.3857240080833435 -0.4642559885978699 -0.797298014163971
          0.24539799988269806 -0.7712100148200989 -0.5873799920082092 0.40842100977897644 -0.8070610165596008 0.4264320135116577
          0.4772459864616394 0.2285279929637909 -0.8485350012779236 0.8275730013847351 0.23883399367332458 -0.5080159902572632
          0.9247589707374573 -0.07160499691963196 -0.373757004737854 0.8009330034255981 -0.36695000529289246 -0.47313299775123596
          -0.7861459851264954 -0.5518239736557007 0.27832600474357605 -0.9090179800987244 0.164901003241539 -0.38274601101875305
          0.03259199857711792 -0.5606210231781006 0.8274310231208801 -0.6705170273780823 0.7085180282592773 -0.22002099454402924
          0.23461699485778809 -0.5456780195236206 0.804481029510498 0.48091399669647217 0.4858979880809784 -0.7298120260238647
          0.3407129943370819 0.8151819705963135 -0.468394011259079 -0.564864993095398 0.8246549963951111 -0.02952600084245205
          0.8829780220985413 -0.43000099062919617 0.188277006149292 0.8135849833488464 -0.13323499262332916 0.56597501039505
          0.05213899910449982 -0.23232300579547882 0.9712399840354919 0.8527290225028992 0.5168179869651794 0.07584799826145172
          0.9233450293540955 0.06749200075864792 0.37799298763275146 -0.5156220197677612 0.1931069940328598 0.8347709774971008
          -0.7006300091743469 0.4962489902973175 0.5126940011978149 -0.17903900146484375 0.1319119930267334 0.9749590158462524
          -0.6116260290145874 0.6256710290908813 0.48419898748397827 -0.19130000472068787 -0.1516129970550537 0.9697510004043579
          -0.7707859873771667 0.559224009513855 0.3052169978618622 -0.4558260142803192 -0.1891230046749115 0.8697440028190613
          0.586991012096405 0.7374899983406067 0.33399099111557007 -0.37794598937034607 0.8279799818992615 0.41425299644470215
          -0.7783809900283813 0.4828839898109436 0.40118101239204407 0.7182310223579407 0.4483709931373596 0.5320789813995361
          -0.031031999737024307 0.5371720194816589 0.8429020047187805 -0.5649420022964478 0.2414110004901886 0.7890260219573975
          -0.5202990174293518 0.36384299397468567 0.7725980281829834
          <InformationKey name="L2_NORM_RANGE" location="vtkDataArray" length="2">
            <Value index="0">
              0.99999943315
            </Value>
            <Value index="1">
              1.0000005541
            </Value>
          </InformationKey>
        </DataArray>
      </PointData>
      <CellData>
      </CellData>
      <Points>
        <DataArray type="Float32" Name="Points" NumberOfComponents="3" format="ascii" RangeMin="0.0032734132513304332" RangeMax="0.01386633288637733">
          0.006111999973654747 0.0007570000016130507 -0.004989999812096357 0.000048999998398358 -0.0008970000199042261 -0.0038040000945329666
          0.0017379999626427889 0.0019229999743402004 -0.004982000216841698 0.00596599979326129 0.0025659999810159206 -0.005646000150591135
          0.005179999861866236 -0.0000019999999949504854 -0.004641000181436539 0.0002530000056140125 -0.0016749999485909939 -0.0028009999077767134
          0.007083999924361706 0.0038419999182224274 -0.0046190000139176846 -0.005262000020593405 -0.007952000014483929 -0.0010319999419152737
          -0.0017239999724552035 -0.00165200000628829 -0.00520200002938509 -0.003992000129073858 -0.00906199961900711 0.0018530000234022737
          0.0023089998867362738 0.006029999814927578 -0.004736000206321478 0.006252000108361244 0.005973000079393387 -0.005894000176340342
          -0.0006500000017695129 0.005944000091403723 -0.007957999594509602 0.006971000228077173 0.00007000000186963007 -0.004145000129938126
          0.004317999817430973 -0.001294999965466559 -0.00318100000731647 0.0031079999171197414 -0.0026990000624209642 -0.0026599999982863665
          0.007753999903798103 0.009266000241041183 -0.005204999819397926 0.008841999806463718 0.009428000077605247 -0.0034860000014305115
          0.008634000085294247 0.004747999832034111 -0.0036949999630451202 0.008049000054597855 0.0017750000115484 -0.0038759999442845583
          -0.011698000133037567 -0.00597199983894825 0.003154000034555793 -0.0132039999589324 -0.0010649999603629112 0.001617999980226159
          -0.007327999919652939 -0.007546999957412481 0.004660000093281269 -0.008570999838411808 0.006570999976247549 -0.00008399999933317304
          -0.002096999902278185 -0.0015899999998509884 0.0061690001748502254 0.004914000164717436 0.010336999781429768 -0.004683999810367823
          0.004472000058740377 0.01177200023084879 -0.002739999908953905 -0.0021550001110881567 0.010293999686837196 0.0026390000712126493
          0.00700599979609251 0.0009449999779462814 -0.0005520000122487545 0.0068339998833835125 0.001841000048443675 0.005748999770730734
          0.0027260000351816416 0.005162000190466642 0.009394999593496323 0.008311999961733818 0.010950000025331974 -0.0018119999440386891
          0.00817199982702732 0.005733000114560127 -0.0009089999948628247 -0.010222000069916248 -0.0008229999803006649 0.0054709999822080135
          -0.010502999648451805 0.0016629999736323953 0.004083999898284674 -0.008294999599456787 0.00014400000509340316 0.0059079998172819614
          -0.007999000139534473 0.004385999869555235 0.0033009999897331 -0.005162000190466642 0.002518000081181526 0.005812999792397022
          -0.004699000157415867 0.0066269999369978905 0.00442600017413497 -0.0019809999503195286 0.0039049999322742224 0.007670999970287085
          0.005867999978363514 0.011114000342786312 0.0009270000155083835 -0.00021300000662449747 0.010960999876260757 0.005934999790042639
          -0.003515999997034669 0.008724999614059925 0.004798999987542629 0.00736499996855855 0.0066109998151659966 0.0009379999828524888
          -0.0008820000221021473 0.008400999940931797 0.008559999987483025 -0.0031850000377744436 0.005640000104904175 0.006630999967455864
          -0.006173999980092049 0.0036430000327527523 0.0053449999541044235
          <InformationKey name="L2_NORM_RANGE" location="vtkDataArray" length="2">
            <Value index="0">
              0.0032734132513
            </Value>
            <Value index="1">
              0.013866332886
            </Value>
          </InformationKey>
        </DataArray>
      </Points>
      <Verts>
        <DataArray type="Int64" Name="connectivity" format="ascii" RangeMin="1e+299" RangeMax="-1e+299">
        </DataArray>
        <DataArray type="Int64" Name="offsets" format="ascii" RangeMin="1e+299" RangeMax="-1e+299">
        </DataArray>
      </Verts>
      <Lines>
        <DataArray type="Int64" Name="connectivity" format="ascii" RangeMin="1e+299" RangeMax="-1e+299">
        </DataArray>
        <DataArray type="Int64" Name="offsets" format="ascii" RangeMin="1e+299" RangeMax="-1e+299">
        </DataArray>
      </Lines>
      <Strips>
        <DataArray type="Int64" Name="connectivity" format="ascii" RangeMin="1e+299" RangeMax="-1e+299">
        </DataArray>
        <DataArray type="Int64" Name="offsets" format="ascii" RangeMin="1e+299" RangeMax="-1e+299">
        </DataArray>
      </Strips>
      <Polys>
        <DataArray type="Int32" Name="connectivity" format="ascii" RangeMin="0" RangeMax="46">
          0 1 2 3 4 5
          1 0 6 0 3 6
          4 0 1 7 8 2
          5 9 7 1 3 2
          10 11 2 8 12 10
          6 3 11 13 14 5
          4 6 13 4 14 15
          9 5 6 11 16 6
          16 17 6 17 18 6
          18 19 6 19 13 7
          20 21 8 9 22 20
          7 8 21 23 12 15
          24 22 9 11 10 25
          16 10 12 26 25 12
          23 27 26 19 28 14
          13 28 29 15 14 29
          30 24 15 16 25 31
          17 17 31 32 18 18
          32 28 19 20 33 34
          21 22 35 33 20 21
          34 36 23 24 37 35
          22 23 36 38 27 30
          39 37 24 25 26 40
          31 26 27 41 40 27
          38 42 41 32 43 29
          28 43 44 30 29 44
          45 39 30 31 40 43
          32 34 33 46 33 35
          46 36 34 46 35 37
          46 38 36 46 37 39
          46 42 38 46 39 45
          46 40 41 44 43 41
          42 45 44 45 42 46
        </DataArray>
        <DataArray type="Int32" Name="offsets" format="ascii" RangeMin="4" RangeMax="198">
          4 8 11 14 18 22
          26 30 33 37 40 44
          47 50 53 56 59 63
          67 71 75 79 83 87
          91 95 99 103 107 111
          115 119 123 127 131 135
          139 143 147 151 155 159
          163 166 169 172 175 178
          181 184 187 191 195 198
        </DataArray>
      </Polys>
    </Piece>
  </PolyData>
</VTKFile>
