<?xml version="1.0"?>
<VTKFile type="PolyData" version="0.1" byte_order="LittleEndian" header_type="UInt32" compressor="vtkZLibDataCompressor">
  <PolyData>
    <Piece NumberOfPoints="194" NumberOfVerts="0" NumberOfLines="0" NumberOfStrips="0" NumberOfPolys="384">
      <PointData Normals="Normals">
        <DataArray type="Float32" Name="Normals" NumberOfComponents="3" format="ascii" RangeMin="0.9999993046436744" RangeMax="1.0000005288676312">
          -0.3634819984436035 -0.5929309725761414 -0.7185500264167786 -0.0029639999847859144 -0.9030320048332214 -0.4295629858970642
          -0.3029800057411194 -0.5420839786529541 -0.7838029861450195 -0.02482300065457821 -0.40271198749542236 -0.9149900078773499
          0.19350799918174744 -0.7617049813270569 -0.618353009223938 -0.3057900071144104 0.35193899273872375 -0.8846650123596191
          0.007650999817997217 0.2786940038204193 -0.960349977016449 -0.31415799260139465 -0.9296740293502808 -0.1923840045928955
          -0.031975001096725464 -0.8987510204315186 -0.4372909963130951 -0.904250979423523 0.07284999638795853 -0.4207409918308258
          -0.7180650234222412 -0.5673360228538513 -0.4031279981136322 0.5704320073127747 0.19227099418640137 -0.7985230088233948
          0.4538689851760864 -0.7736340165138245 -0.44214698672294617 0.8339419960975647 0.22537800669670105 -0.5037320256233215
          0.5660030245780945 0.6061490178108215 -0.5587700009346008 0.1469459980726242 0.559798002243042 -0.815496027469635
          -0.369143009185791 0.505761981010437 -0.7797039747238159 -0.8682439923286438 -0.42574799060821533 0.254736989736557
          -0.9121819734573364 -0.2602980136871338 0.31649500131607056 0.13879899680614471 -0.9219350218772888 -0.36162298917770386
          -0.22912700474262238 -0.9718800187110901 -0.054322998970746994 -0.6542680263519287 -0.7458869814872742 0.12484700232744217
          0.5251839756965637 -0.7800719738006592 -0.3401010036468506 0.3036389946937561 -0.8570759892463684 -0.41620200872421265
          0.07802099734544754 -0.9420760273933411 -0.326198011636734 -0.4132159948348999 -0.8881800174713135 -0.20097100734710693
          -0.385113000869751 -0.9228540062904358 0.005286999978125095 -0.7193220257759094 0.3929489850997925 -0.572858989238739
          -0.9338899850845337 0.11210600286722183 0.3395310044288635 0.7332659959793091 -0.6336219906806946 -0.24666599929332733
          0.9301609992980957 0.028085999190807343 -0.3660759925842285 0.7827309966087341 0.4961000084877014 -0.37578898668289185
          0.5055810213088989 0.35183200240135193 -0.7877830266952515 0.8097350001335144 0.2689000070095062 -0.5215579867362976
          -0.0073540001176297665 0.41830599308013916 -0.9082760214805603 -0.9479460120201111 -0.25579801201820374 0.18964600563049316
          -0.7534719705581665 -0.6433169841766357 0.13573099672794342 -0.7858369946479797 -0.4962559938430786 0.3690379858016968
          -0.3062039911746979 -0.9397249817848206 0.15217000246047974 -0.6242489814758301 -0.7044190168380737 0.33779600262641907
          0.8527029752731323 -0.5214869976043701 0.030812999233603477 0.8790839910507202 -0.4765450060367584 0.010785000398755074
          -0.11265700310468674 -0.9779059886932373 0.1760919988155365 0.45761799812316895 -0.7632399797439575 0.4561240077018738
          -0.6244930028915405 -0.4903770089149475 0.6078969836235046 -0.614175021648407 -0.5569750070571899 0.5590770244598389
          -0.5664010047912598 -0.39698299765586853 0.7222149968147278 0.08059599995613098 0.15245899558067322 -0.9850180149078369
          -0.9235450029373169 0.2235260009765625 -0.31161099672317505 -0.9985259771347046 0.05044100061058998 -0.020036999136209488
          0.9768949747085571 -0.15615400671958923 -0.1459210067987442 0.9078940153121948 -0.4176369905471802 0.036166001111269
          0.9145399928092957 0.3207849860191345 -0.24640099704265594 0.7599769830703735 0.10200600326061249 -0.6418960094451904
          0.8382290005683899 0.21895499527454376 0.49943000078201294 -0.9071320295333862 -0.1741729974746704 0.38311201333999634
          0.7119730114936829 -0.22245800495147705 0.6660379767417908 0.8548579812049866 -0.21128100156784058 0.47389599680900574
          -0.3486819863319397 -0.44006800651550293 0.8275030255317688 0.1265539973974228 -0.2650020122528076 0.9559069871902466
          -0.5182160139083862 -0.1621440052986145 0.8397390246391296 -0.5972279906272888 -0.04299899935722351 0.8009179830551147
          -0.15428200364112854 0.06531500071287155 0.9858660101890564 -0.70523601770401 0.08723500370979309 -0.7035850286483765
          0.1616239994764328 0.004668999928981066 -0.9868410229682922 0.6211689710617065 -0.03128800168633461 -0.7830520272254944
          -0.9890549778938293 0.13253700733184814 -0.06483999639749527 0.9676470160484314 0.06880199909210205 0.24274800717830658
          0.986240029335022 -0.003200999926775694 -0.1652899980545044 0.7034019827842712 0.09526000171899796 0.7043799757957458
          0.14788000285625458 0.13775600492954254 0.9793639779090881 -0.7736290097236633 0.14439399540424347 0.6169670224189758
          -0.30587199330329895 0.1072629988193512 0.9460110068321228 -0.5377230048179626 -0.008178000338375568 -0.8430820107460022
          -0.9871479868888855 0.0961960032582283 0.1276099979877472 0.9803270101547241 -0.07521100342273712 -0.1824910044670105
          0.8650720119476318 0.021291999146342278 0.501196026802063 0.24900799989700317 0.061083000153303146 0.9665729999542236
          -0.7365339994430542 0.11036600172519684 0.6673349738121033 -0.24060599505901337 0.06860899925231934 0.9681950211524963
          -0.18701399862766266 -0.16639000177383423 -0.968163013458252 -0.8825240135192871 0.0845400020480156 0.4626060128211975
          -0.937853991985321 0.08998999744653702 0.3351590037345886 -0.6769700050354004 0.09312800318002701 0.7300950288772583
          0.8994860053062439 -0.09429199993610382 -0.42665401101112366 0.9295979738235474 0.01510199997574091 0.3682659864425659
          0.41947799921035767 0.05788499861955643 0.9059180021286011 0.6529170274734497 0.060982998460531235 0.7549700140953064
          -0.29191601276397705 0.08314300328493118 0.9528229832649231 0.17915700376033783 -0.1640769988298416 -0.9700419902801514
          -0.8237800002098083 -0.027363000437617302 -0.5662490129470825 -0.5336549878120422 0.12072700262069702 0.8370410203933716
          -0.17394399642944336 0.20273099839687347 0.9636610150337219 -0.6167510151863098 0.1677590012550354 0.769074022769928
          -0.9800840020179749 -0.06335999816656113 -0.18820400536060333 -0.3457390069961548 -0.17035900056362152 -0.9227359890937805
          -0.08320599794387817 0.16768300533294678 0.9823229908943176 0.8716959953308105 -0.06700500100851059 -0.48544400930404663
          0.8920760154724121 0.13383400440216064 0.43161100149154663 0.4785340130329132 0.18424800038337708 0.8585209846496582
          -0.0771699994802475 0.11563000082969666 0.9902899861335754 0.4397279918193817 0.21998000144958496 0.87077397108078
          0.16468800604343414 0.21230900287628174 0.9632250070571899 -0.40293100476264954 0.15627799928188324 0.9017890095710754
          -0.8639469742774963 0.07394400238990784 0.49812498688697815 -0.37752699851989746 -0.07836499810218811 -0.9226769804954529
          -0.7923449873924255 -0.012996000237762928 -0.6099349856376648 -0.9997770190238953 -0.00457100011408329 0.02063100039958954
          0.7859470248222351 -0.19299599528312683 -0.5874009728431702 0.2233390063047409 -0.3123120069503784 -0.9233530163764954
          0.9279699921607971 0.07275400310754776 0.36548399925231934 0.6990669965744019 0.014884999953210354 0.7149009704589844
          0.03551200032234192 -0.007965999655425549 0.9993370175361633 -0.8238720297813416 -0.015483999624848366 0.5665649771690369
          -0.4404650032520294 -0.08213599771261215 0.8940050005912781 -0.5003229975700378 0.06247600167989731 -0.8635820150375366
          -0.00760400015860796 -0.02167700044810772 -0.9997360110282898 0.1702830046415329 -0.22577999532222748 -0.9591799974441528
          0.2478870004415512 -0.06265000253915787 -0.9667609930038452 -0.8362579941749573 -0.03520800173282623 -0.5472049713134766
          -0.9978119730949402 -0.06579899787902832 0.00646999990567565 0.9254080057144165 -0.14029400050640106 -0.35204800963401794
          0.6264700293540955 -0.3049730062484741 -0.7173050045967102 0.5758950114250183 -0.2886430025100708 -0.7648730278015137
          0.9656469821929932 0.004058000165969133 -0.25982600450515747 0.9970380067825317 0.04124699905514717 0.06491299718618393
          0.9571880102157593 -0.28888800740242004 0.0183119997382164 0.8096569776535034 -0.4527060091495514 0.37351301312446594
          0.4916050136089325 -0.46974998712539673 0.733253002166748 0.23374199867248535 -0.3498930037021637 0.9071599841117859
          -0.24962599575519562 -0.43906599283218384 0.8630809783935547 -0.8078420162200928 -0.2936280071735382 0.5110509991645813
          -0.5141440033912659 -0.1241070032119751 -0.8486769795417786 0.5579090118408203 0.021212000399827957 -0.829630970954895
          0.098860003054142 -0.41808798909187317 -0.9030110239982605 0.6238290071487427 -0.14246800541877747 -0.7684659957885742
          0.7131159901618958 -0.12650099396705627 -0.6895380020141602 0.6861420273780823 0.041871000081300735 -0.7262619733810425
          -0.859807014465332 -0.09941300004720688 -0.5008490085601807 -0.9579229950904846 -0.28700798749923706 -0.0032190000638365746
          0.8758580088615417 0.08400499820709229 -0.4752019941806793 0.8839700222015381 -0.04093300178647041 -0.46574801206588745
          0.8404960036277771 -0.36200499534606934 -0.4031369984149933 0.7426829934120178 -0.5234060287475586 -0.41769400238990784
          0.6937980055809021 -0.7162749767303467 0.07479999959468842 0.8086079955101013 -0.4661000072956085 0.35903200507164
          0.686788022518158 -0.3414649963378906 0.6416569948196411 0.13024300336837769 -0.427386999130249 0.8946380019187927
          0.4322879910469055 -0.12045399844646454 0.8936539888381958 -0.712867021560669 -0.2274550050497055 0.6633890271186829
          -0.2165209949016571 -0.2911910116672516 0.9318400025367737 -0.9609770178794861 -0.20225299894809723 0.18872499465942383
          -0.520035982131958 -0.3578619956970215 -0.7755630016326904 0.424793004989624 -0.5324389934539795 -0.7321609854698181
          0.602213978767395 -0.5295959711074829 -0.5973830223083496 -0.05325999855995178 -0.40563899278640747 -0.9124799966812134
          -0.8605219721794128 -0.29500699043273926 -0.4152970016002655 -0.9343360066413879 -0.3000519871711731 -0.1923149973154068
          0.36305299401283264 -0.15476800501346588 -0.9188249707221985 0.6810140013694763 0.3063400089740753 -0.6651129722595215
          0.8909419775009155 -0.35408899188041687 -0.28432899713516235 0.9400650262832642 -0.3355480134487152 0.06070899963378906
          0.9191589951515198 0.09679500013589859 0.38180801272392273 0.6874920129776001 0.16710500419139862 0.7067040205001831
          0.12728199362754822 0.19022099673748016 0.973455011844635 0.38489699363708496 0.5597429871559143 0.7338539958000183
          -0.555866003036499 0.2968840003013611 0.7764490246772766 -0.3027940094470978 0.15100699663162231 0.9410169720649719
          -0.8235809803009033 0.15597300231456757 0.5453310012817383 -0.9360769987106323 0.08194500207901001 0.3421190083026886
          -0.8776180148124695 0.4746290147304535 0.06718999892473221 -0.9666020274162292 0.053718000650405884 -0.2505890130996704
          -0.4898320138454437 -0.3375549912452698 -0.8038169741630554 -0.784919023513794 -0.25406599044799805 -0.5651130080223083
          -0.46197301149368286 -0.12215600162744522 -0.8784409761428833 -0.0699940025806427 -0.12149900197982788 -0.9901210069656372
          0.15370500087738037 0.4378660023212433 -0.8858039975166321 0.755046010017395 0.6493489742279053 -0.09083399921655655
          0.17234699428081512 0.960319995880127 -0.21927699446678162 0.7858449816703796 0.5553590059280396 0.27207401394844055
          0.630357027053833 0.6355559825897217 0.4457789957523346 -0.07043000310659409 0.715179979801178 0.6953819990158081
          0.18595099449157715 0.9760580062866211 0.1128389984369278 -0.6488410234451294 0.6280739903450012 0.42956799268722534
          -0.34582000970840454 0.7333109974861145 0.5853750109672546 -0.645576000213623 0.623062014579773 -0.4416170120239258
          -0.2426680028438568 0.969763994216919 -0.02587199956178665 -0.7821909785270691 0.007637999951839447 -0.6229919791221619
          -0.3566499948501587 0.31792500615119934 -0.87847900390625 -0.04265600070357323 0.9334880113601685 -0.35606399178504944
          0.28411000967025757 0.955847978591919 0.07507199794054031 0.08135399967432022 0.9962660074234009 -0.028896000236272812
          -0.05208100005984306 0.992455005645752 0.11100099980831146 -0.10046800225973129 0.979748010635376 -0.17320600152015686
          <InformationKey name="L2_NORM_RANGE" location="vtkDataArray" length="2">
            <Value index="0">
              0.99999930464
            </Value>
            <Value index="1">
              1.0000005289
            </Value>
          </InformationKey>
        </DataArray>
      </PointData>
      <CellData>
      </CellData>
      <Points>
        <DataArray type="Float32" Name="Points" NumberOfComponents="3" format="ascii" RangeMin="0.0020780890159033446" RangeMax="0.2409051638967742">
          -0.012807000428438187 -0.22762000560760498 0.011017000302672386 -0.013906000182032585 -0.22937799990177155 0.014952999539673328
          -0.01879199966788292 -0.2293969988822937 0.015464999713003635 -0.007830999791622162 -0.22772599756717682 0.008201999589800835
          -0.003959000110626221 -0.22841300070285797 0.009251000359654427 -0.010300000198185444 -0.22289299964904785 0.008969999849796295
          -0.006924999877810478 -0.22418999671936035 0.0076489998027682304 -0.016839999705553055 -0.23313699662685394 0.020368000492453575
          -0.0035699999425560236 -0.23248699307441711 0.02758299931883812 -0.020873000845313072 -0.22680999338626862 0.01604600064456463
          -0.01998000033199787 -0.2298160046339035 0.016063999384641647 -0.0034940000623464584 -0.22592200338840485 0.00913199968636036
          -0.0015069999499246478 -0.22958000004291534 0.011938000097870827 -0.00045900000259280205 -0.2274159938097 0.012409999966621399
          -0.006535000167787075 -0.22037899494171143 0.013224000111222267 -0.0114120002835989 -0.21866799890995026 0.012810000218451023
          -0.01269800029695034 -0.2186339944601059 0.013016000390052795 -0.016801999881863594 -0.23160000145435333 0.0239499993622303
          -0.020037999376654625 -0.22924399375915527 0.017450999468564987 -0.008888999931514263 -0.23411500453948975 0.02796100080013275
          -0.014344999566674232 -0.23384900391101837 0.023899000138044357 -0.015652000904083252 -0.23295700550079346 0.023784000426530838
          0.0022009999956935644 -0.23383499681949615 0.027080999687314034 0.0010819999733939767 -0.2369460016489029 0.03175700083374977
          0.0011919999960809946 -0.23267899453639984 0.024164000526070595 -0.004699000157415867 -0.23739199340343475 0.03266099840402603
          -0.007457999978214502 -0.23561599850654602 0.03122200071811676 -0.016402000561356544 -0.21541500091552734 0.01750599965453148
          -0.018750999122858047 -0.22417199611663818 0.019161000847816467 0.0026110000908374786 -0.23252800107002258 0.025187000632286072
          0.0026320000179111958 -0.2285279929637909 0.019733000546693802 0.0009599999757483602 -0.22482499480247498 0.023096000775694847
          -0.006479000207036734 -0.21436099708080292 0.01686299964785576 -0.00521400012075901 -0.21940399706363678 0.015905000269412994
          -0.010011999867856503 -0.21444100141525269 0.015197999775409698 -0.016276000067591667 -0.23148900270462036 0.02616100013256073
          -0.015603999607264996 -0.23290200531482697 0.025442000478506088 -0.015320999547839165 -0.23282699286937714 0.02662999927997589
          -0.01017099991440773 -0.23462000489234924 0.02951899915933609 -0.01459600031375885 -0.23364199697971344 0.0268389992415905
          0.0019249999895691872 -0.23610299825668335 0.03305000066757202 0.003622000105679035 -0.23154300451278687 0.03141200169920921
          -0.0017600000137463212 -0.23849600553512573 0.033939000219106674 0.00017100000695791095 -0.23775699734687805 0.034630000591278076
          -0.007060000207275152 -0.2347330003976822 0.03273199871182442 -0.004767999984323978 -0.2368990033864975 0.033883001655340195
          -0.012830999679863453 -0.2301809936761856 0.03143199905753136 -0.01053099986165762 -0.20887599885463715 0.016641000285744667
          -0.014504999853670597 -0.20918400585651398 0.01818300038576126 -0.016790999099612236 -0.22655199468135834 0.025854000821709633
          0.004889000207185745 -0.22935600578784943 0.02725899964570999 0.00481700012460351 -0.2302210032939911 0.030299000442028046
          0.004708999767899513 -0.22544999420642853 0.029131000861525536 -0.0031059999018907547 -0.20923100411891937 0.021412000060081482
          0.0016380000161007047 -0.21613800525665283 0.0320499986410141 -0.01771399937570095 -0.22571200132369995 0.028610000386834145
          0.0017059999518096447 -0.2355560064315796 0.03516000136733055 0.004170000087469816 -0.23051400482654572 0.03334999829530716
          -0.002655999967828393 -0.2368669956922531 0.035771001130342484 -0.00133500003721565 -0.23544800281524658 0.036616001278162
          -0.004100000020116568 -0.2320770025253296 0.035333000123500824 -0.01649099960923195 -0.22510600090026855 0.03022100031375885
          -0.0026199999265372753 -0.2305620014667511 0.036240000277757645 -0.011754999868571758 -0.19492900371551514 0.017976000905036926
          -0.00786499958485365 -0.18782499432563782 0.017666999250650406 -0.0038240000139921904 -0.18456700444221497 0.019536999985575676
          -0.015070999972522259 -0.20899100601673126 0.024858999997377396 0.004858999978750944 -0.22753700613975525 0.03219899907708168
          -0.0008789999992586672 -0.1874070018529892 0.025050999596714973 -0.0011269999668002129 -0.19418199360370636 0.029374999925494194
          -0.0048489999026060104 -0.20829400420188904 0.032003000378608704 -0.01634499989449978 -0.22265200316905975 0.029892999678850174
          -0.011010999791324139 -0.19662100076675415 0.03006099909543991 -0.008743000216782093 -0.14678099751472473 0.016471000388264656
          -0.013016999699175358 -0.18780100345611572 0.024765999987721443 0.0012799999676644802 -0.14155399799346924 0.021405000239610672
          -0.0004879999905824661 -0.1700969934463501 0.02656799927353859 -0.004050000105053186 -0.183105006814003 0.03004400059580803
          -0.010781999677419662 -0.18013499677181244 0.027759000658988953 -0.0067090000957250595 -0.16998499631881714 0.0293940007686615
          -0.0069149998016655445 -0.1081480011343956 0.009186999872326851 -0.009403999894857407 -0.15074600279331207 0.025523999705910683
          -0.007712999824434519 -0.10154099762439728 0.018654000014066696 -0.00827299989759922 -0.1548289954662323 0.027434999123215675
          0.004236999899148941 -0.07419399917125702 0.009913000278174877 0.0027439999394118786 -0.11202800273895264 0.020382000133395195
          -0.0026310000102967024 -0.13680399954319 0.02717299945652485 0.000514000013936311 -0.11155000329017639 0.023617999628186226
          -0.005384999793022871 -0.14558400213718414 0.028053000569343567 -0.005446999799460173 -0.07709000259637833 0.004368999972939491
          -0.007081000134348869 -0.07701700180768967 0.004865000024437904 -0.007344000041484833 -0.1369280070066452 0.026498999446630478
          -0.0027920000720769167 -0.07531700283288956 0.016380000859498978 -0.004356999881565571 -0.0390160009264946 0.009127000346779823
          -0.006723999977111816 -0.046000998467206955 0.0022819999139755964 -0.005179000087082386 -0.06182200089097023 0.00292299990542233
          -0.0010079999919980764 -0.1063620001077652 0.023414000868797302 0.0034600000362843275 -0.06654799729585648 0.00660800002515316
          0.0036929999478161335 -0.07580900192260742 0.014132999815046787 0.0013299999991431832 -0.08474799990653992 0.0188400000333786
          -0.003914000000804663 -0.13199399411678314 0.02699499949812889 0.0010310000507161021 -0.0753839984536171 0.016240999102592468
          -0.0006319999811239541 -0.03244100138545036 0.008162000216543674 -0.0032840000931173563 -0.02396799996495247 0.00520299980416894
          -0.006506000179797411 -0.03055099956691265 0.0043390002101659775 -0.003636999987065792 -0.027094999328255653 -0.00482399994507432
          -0.006663000211119652 -0.026528000831604004 -0.0026390000712126493 -0.00722600007429719 -0.027171000838279724 0.0007619999814778566
          0.003415999934077263 -0.04857499897480011 0.0023690001107752323 -0.000446999998530373 -0.04363999888300896 -0.0018029999919235706
          0.0028099999763071537 -0.06144699826836586 0.011017999611794949 0.0029349999967962503 -0.018761999905109406 0.0036589999217540026
          -0.000056000000768108293 -0.018105000257492065 0.004701999947428703 -0.006577999796718359 -0.01801699958741665 0.0023880000226199627
          -0.004395999945700169 -0.01399100013077259 0.004581000190228224 -0.005425000097602606 -0.02355399914085865 -0.0031479999888688326
          -0.0012069999938830733 -0.024063000455498695 -0.004947999957948923 0.0008679999737069011 -0.035544998943805695 -0.0039369999431073666
          0.0010470000561326742 -0.031617000699043274 -0.0047240001149475574 -0.0065460000187158585 -0.018377000465989113 -0.002194999950006604
          -0.007400999777019024 -0.016016999259591103 0.00016599999798927456 0.003478999948129058 -0.044502999633550644 0.0013879999751225114
          0.0027149999514222145 -0.04426800087094307 0.00034500000765547156 0.0023399998899549246 -0.040314000099897385 -0.0020639998838305473
          0.004772000014781952 -0.024183999747037888 -0.0015310000162571669 0.00443299999460578 -0.01874700002372265 0.0006970000104047358
          0.004550999961793423 -0.01004599966108799 -0.00024500000290572643 0.0038620000705122948 -0.010010999627411366 0.002736999886110425
          0.002311999909579754 -0.009755999781191349 0.004922000225633383 0.000060999998822808266 -0.009266999550163746 0.006087999790906906
          -0.00279300007969141 -0.009484999813139439 0.00620400020852685 -0.007544000167399645 -0.009580999612808228 0.002727000042796135
          -0.004422000143676996 -0.019166000187397003 -0.004021000117063522 0.002230999991297722 -0.01949400082230568 -0.0038870000280439854
          -0.0008379999781027436 -0.01154599990695715 -0.006632999982684851 0.002005999907851219 -0.015364999882876873 -0.0042940001003444195
          0.0031900000758469105 -0.03185399994254112 -0.0035099999513477087 0.0036299999337643385 -0.02423200011253357 -0.0033970000222325325
          -0.006674000062048435 -0.01347300037741661 -0.003189000068232417 -0.007898000068962574 -0.00952799990773201 0.0014049999881535769
          0.0038880000356584787 -0.019425999373197556 -0.002119000069797039 0.0038109999150037766 -0.014798000454902649 -0.00216299993917346
          0.0032550001051276922 -0.010963999666273594 -0.003994999919086695 0.005934999790042639 -0.007420999929308891 -0.006118999794125557
          0.0062950002029538155 -0.007474000100046396 -0.000012000000424450263 0.007757999934256077 -0.005096000153571367 0.004224000032991171
          0.005231999792158604 -0.004720999859273434 0.00762399984523654 0.000526999996509403 -0.004327000118792057 0.010147999972105026
          0.003066000062972307 -0.00445100013166666 0.009379000402987003 -0.008383999578654766 -0.004302999936044216 0.006957000121474266
          -0.0032949999440461397 -0.0044559999369084835 0.009921000339090824 -0.010382999666035175 -0.004497000016272068 0.0023109999019652605
          -0.003922999836504459 -0.011274999938905239 -0.005973000079393387 0.0034920000471174717 -0.009097999893128872 -0.007207999937236309
          0.0022090000566095114 -0.011467999778687954 -0.005278000142425299 -0.000623999978415668 -0.009399999864399433 -0.008426999673247337
          -0.007046999875456095 -0.009991999715566635 -0.003083999967202544 -0.010445999912917614 -0.004621999803930521 -0.0005890000029467046
          0.003386999946087599 -0.005394000094383955 -0.008431999944150448 0.00558000011369586 -0.000391999987186864 -0.007261000107973814
          0.007822000421583652 -0.006407999899238348 -0.003515999997034669 0.008658000268042088 -0.0057749999687075615 -0.0001740000006975606
          0.00798800028860569 -0.002455000067129731 0.004044999834150076 0.0056329998187720776 -0.00164899998344481 0.0073090000078082085
          -0.001339999958872795 -0.0014690000098198652 0.010181999765336514 0.003438000101596117 0.0006960000027902424 0.00798800028860569
          -0.00660800002515316 -0.000037999998312443495 0.007872999645769596 -0.003223000094294548 -0.0015310000162571669 0.010181999765336514
          -0.009383000433444977 -0.0011360000353306532 0.0054720002226531506 -0.009975000284612179 -0.0011390000581741333 0.0039820000529289246
          -0.010169999673962593 0.0013549999566748738 0.0019460000330582261 -0.01052900031208992 -0.0014319999609142542 -0.0011220000451430678
          -0.003776000114157796 -0.008705000393092632 -0.007860000245273113 -0.008142000064253807 -0.0062489998526871204 -0.004253000020980835
          -0.003607999999076128 -0.0031950001139193773 -0.009031999856233597 -0.001905999961309135 -0.004883999936282635 -0.009198999963700771
          0.0003380000125616789 -0.0005680000176653266 -0.00964299961924553 0.007953999564051628 0.0004459999909158796 -0.0007580000092275441
          0.004664999898523092 0.000666000007186085 -0.006120999809354544 0.00775599991902709 -0.00003400000059627928 0.003134000115096569
          0.005621999967843294 0.00027200000477023423 0.006268000230193138 -0.0025259999092668295 0.0009360000258311629 0.009178999811410904
          0.0026730000972747803 0.0014189999783411622 0.00660899979993701 -0.008684000000357628 0.0015559999737888575 0.004980000201612711
          -0.006184999831020832 0.001339999958872795 0.0073910001665353775 -0.008503999561071396 0.001057000015862286 -0.004228999838232994
          -0.008496999740600586 0.002203000010922551 0.0014949999749660492 -0.009200000204145908 -0.0018119999440386891 -0.004160999786108732
          -0.003292999928817153 -0.00006500000017695129 -0.009131000377237797 -0.0027970001101493835 0.0010949999559670687 -0.007737999781966209
          0.0070130000822246075 0.0004769999941345304 0.0030400000978261232 0.0016609999584034085 -0.0004030000127386302 -0.0011820000363513827
          -0.007280000019818544 0.0023129999171942472 0.0040420000441372395 -0.007127000018954277 0.0020630001090466976 -0.00367600005120039
          <InformationKey name="L2_NORM_RANGE" location="vtkDataArray" length="2">
            <Value index="0">
              0.0020780890159
            </Value>
            <Value index="1">
              0.2409051639
            </Value>
          </InformationKey>
        </DataArray>
      </Points>
      <Verts>
        <DataArray type="Int64" Name="connectivity" format="ascii" RangeMin="1e+299" RangeMax="-1e+299">
        </DataArray>
        <DataArray type="Int64" Name="offsets" format="ascii" RangeMin="1e+299" RangeMax="-1e+299">
        </DataArray>
      </Verts>
      <Lines>
        <DataArray type="Int64" Name="connectivity" format="ascii" RangeMin="1e+299" RangeMax="-1e+299">
        </DataArray>
        <DataArray type="Int64" Name="offsets" format="ascii" RangeMin="1e+299" RangeMax="-1e+299">
        </DataArray>
      </Lines>
      <Strips>
        <DataArray type="Int64" Name="connectivity" format="ascii" RangeMin="1e+299" RangeMax="-1e+299">
        </DataArray>
        <DataArray type="Int64" Name="offsets" format="ascii" RangeMin="1e+299" RangeMax="-1e+299">
        </DataArray>
      </Strips>
      <Polys>
        <DataArray type="Int32" Name="connectivity" format="ascii" RangeMin="0" RangeMax="193">
          0 1 2 0 3 4
          5 6 0 3 0 6
          2 5 0 1 0 4
          2 1 7 1 4 8
          8 7 1 9 2 10
          7 10 2 2 9 5
          4 3 11 11 3 6
          8 4 12 12 4 13
          11 13 4 6 5 14
          5 15 14 5 16 15
          16 5 9 6 14 11
          7 17 18 7 18 10
          7 19 20 7 8 19
          7 20 21 7 21 17
          8 22 23 12 24 8
          8 24 22 25 8 23
          26 8 25 26 19 8
          16 9 27 27 9 28
          28 9 18 9 10 18
          11 14 13 24 12 29
          13 30 12 29 12 30
          31 13 14 31 30 13
          15 32 14 14 32 33
          31 14 33 15 16 34
          15 34 32 34 16 27
          35 28 17 17 21 36
          35 17 37 17 36 37
          18 17 28 38 19 26
          19 38 20 21 20 39
          39 20 38 21 39 36
          23 22 40 24 29 22
          22 29 41 40 22 41
          42 25 23 40 43 23
          23 43 42 26 25 44
          45 44 25 25 42 45
          46 38 26 44 46 26
          47 27 48 27 47 34
          27 28 48 49 48 28
          35 49 28 50 29 30
          41 29 51 50 51 29
          50 30 52 52 30 31
          33 52 31 53 33 32
          53 32 47 34 47 32
          54 33 53 33 54 52
          49 35 55 35 37 55
          37 36 39 37 39 55
          38 46 39 39 46 55
          40 41 56 56 43 40
          56 41 57 41 51 57
          58 45 42 43 58 42
          58 43 59 56 59 43
          46 44 60 44 45 60
          60 45 58 61 46 62
          60 62 46 46 61 55
          63 47 48 64 47 63
          65 47 64 65 53 47
          66 48 49 48 66 63
          49 55 66 50 52 67
          50 67 51 57 51 67
          54 67 52 65 68 53
          54 53 68 54 69 70
          68 69 54 57 67 54
          62 54 70 56 54 62
          56 57 54 55 71 66
          61 71 55 62 59 56
          60 58 62 59 62 58
          62 71 61 70 72 62