<?xml version="1.0"?>
<VTKFile type="PolyData" version="0.1" byte_order="LittleEndian" header_type="UInt32" compressor="vtkZLibDataCompressor">
  <PolyData>
    <Piece NumberOfPoints="174" NumberOfVerts="0" NumberOfLines="0" NumberOfStrips="0" NumberOfPolys="344">
      <PointData Normals="Normals">
        <DataArray type="Float32" Name="Normals" NumberOfComponents="3" format="ascii" RangeMin="0.9999993469447755" RangeMax="1.0000006939055561">
          -0.34588998556137085 -0.9226139783859253 -0.17071500420570374 0.1622229963541031 -0.9856579899787903 0.046486999839544296
          -0.38011300563812256 -0.9241600036621094 0.03796999901533127 -0.665008008480072 -0.7467039823532104 0.014051999896764755
          -0.12222100049257278 -0.794946014881134 -0.5942410230636597 -0.5737910270690918 -0.7083230018615723 -0.4111489951610565
          -0.4959540069103241 -0.8598080277442932 0.1214900016784668 0.2491620033979416 -0.8080559968948364 -0.5338209867477417
          0.1319970041513443 -0.9909930229187012 0.022563999518752098 0.8458539843559265 -0.5327659845352173 -0.026280000805854797
          0.8647339940071106 -0.5021659731864929 -0.008059999905526638 -0.6461039781570435 -0.7456179857254028 0.16310399770736694
          -0.5894839763641357 -0.8066980242729187 -0.04181300103664398 -0.025458000600337982 -0.2701460123062134 -0.9624829888343811
          -0.5543220043182373 -0.4919329881668091 -0.6713629961013794 -0.6206409931182861 -0.7257390022277832 -0.2968289852142334
          -0.41612398624420166 -0.8871309757232666 0.19959700107574463 -0.6860349774360657 -0.6830170154571533 0.25068798661231995
          0.489793986082077 -0.5773429870605469 -0.6532809734344482 0.2549630105495453 -0.9597830176353455 0.11751600354909897
          0.755075991153717 -0.652122974395752 -0.06779800355434418 0.9657279849052429 0.24225899577140808 -0.09317000210285187
          0.9998350143432617 0.011083000339567661 -0.014387000352144241 0.9444289803504944 -0.14191000163555145 -0.29650700092315674
          0.9435660243034363 0.3170900046825409 0.0955900028347969 -0.524167001247406 -0.8449519872665405 0.10632599890232086
          -0.5518010258674622 -0.7041900157928467 0.4468030035495758 -0.6394330263137817 -0.6383609771728516 0.42851001024246216
          -0.46788400411605835 -0.8758059740066528 -0.11852499842643738 0.4814760088920593 -0.30977898836135864 -0.8198890089988708
          0.43994399905204773 -0.004393000155687332 -0.8980140089988708 -0.1902099996805191 0.21139100193977356 -0.95871502161026
          0.01833299919962883 0.09768799692392349 -0.9950479865074158 -0.3459930121898651 -0.3363189995288849 -0.8758869767189026
          0.19083599746227264 0.35364699363708496 -0.9157050251960754 0.4766480028629303 0.31616300344467163 -0.8202729821205139
          -0.49185600876808167 -0.13933399319648743 -0.8594549894332886 -0.5131580233573914 -0.7130089998245239 -0.4777950048446655
          -0.3804909884929657 -0.7529420256614685 0.5369399785995483 -0.6071439981460571 -0.42951300740242004 0.6685019731521606
          0.19026599824428558 -0.7039260268211365 0.684315025806427 0.6916210055351257 -0.5241289734840393 0.4969410002231598
          0.4757489860057831 0.8780660033226013 -0.051610998809337616 0.7077000141143799 0.7020180225372314 -0.07957299798727036
          0.8109920024871826 0.2597599923610687 0.5242289900779724 0.8801230192184448 -0.1016869992017746 0.46372801065444946
          0.6529449820518494 0.6181420087814331 0.4376789927482605 0.7850949764251709 0.41693800687789917 -0.4580270051956177
          -0.6222429871559143 -0.7679579854011536 -0.15183399617671967 -0.4700759947299957 -0.5925099849700928 0.654187023639679
          -0.5667920112609863 -0.7671219706535339 -0.30045101046562195 -0.5216220021247864 -0.7831839919090271 0.33842599391937256
          -0.1912579983472824 -0.2519899904727936 0.9486420154571533 -0.23784099519252777 -0.46691200137138367 0.8517190217971802
          -0.23163700103759766 -0.1850930005311966 0.9550309777259827 -0.6308519840240479 -0.40053001046180725 0.6645309925079346
          0.325765997171402 0.7443609833717346 -0.5829269886016846 -0.2645129859447479 0.8575019836425781 -0.4412739872932434
          0.2117300033569336 0.32748299837112427 -0.9208279848098755 -0.29942700266838074 -0.4522849917411804 -0.8401079773902893
          -0.11720599979162216 0.679781973361969 -0.7239890098571777 -0.1826619952917099 -0.3994249999523163 0.8983849883079529
          -0.2620300054550171 -0.21376000344753265 0.9410880208015442 -0.40995898842811584 0.03641200065612793 0.9113770127296448
          0.08690100163221359 -0.3055630028247833 0.9481980204582214 0.35685500502586365 -0.07673700153827667 0.9310029745101929
          0.21103200316429138 0.9774540066719055 0.007071000058203936 0.28688400983810425 0.9327449798583984 -0.21836699545383453
          0.2860729992389679 0.8875629901885986 0.36110201478004456 0.2575800120830536 0.23534299433231354 0.93715900182724
          -0.024901999160647392 0.3973810076713562 0.9173160195350647 -0.3905099928379059 -0.2801879942417145 0.876924991607666
          -0.2658340036869049 -0.5520660281181335 -0.790287971496582 -0.19330400228500366 -0.6237149834632874 -0.7573729753494263
          -0.4376319944858551 -0.8585190176963806 -0.26725301146507263 -0.5583959817886353 -0.8274580240249634 -0.0592229999601841
          -0.5342130064964294 -0.7262399792671204 0.4326559901237488 -0.4718570113182068 -0.39896199107170105 0.7862449884414673
          -0.30289098620414734 -0.4297890067100525 0.8506109714508057 0.39427199959754944 0.37147200107574463 0.8405699729919434
          0.34046000242233276 0.4305590093135834 0.8358860015869141 0.14929600059986115 -0.07145799696445465 0.9862070083618164
          0.10815200209617615 0.01583399996161461 0.9940080046653748 -0.09143999963998795 0.32596200704574585 0.9409499764442444
          0.3458710014820099 0.6516820192337036 0.675042986869812 0.4674850106239319 0.4212909936904907 -0.7771559953689575
          0.27235299348831177 -0.12995199859142303 -0.9533820152282715 -0.25481998920440674 -0.06736399978399277 0.9646390080451965
          -0.10024499893188477 0.8192650079727173 0.5645840167999268 0.08799900114536285 0.8041309714317322 0.5879030227661133
          0.2940619885921478 0.9490039944648743 0.11366599798202515 0.6289229989051819 0.7572720050811768 -0.17605499923229218
          0.5600399971008301 0.8256620168685913 0.06810499727725983 0.25132399797439575 -0.20557400584220886 -0.9458199739456177
          0.10924799740314484 -0.2998639941215515 -0.9477059841156006 -0.42206498980522156 -0.761434018611908 -0.49201500415802
          -0.32026299834251404 -0.5992140173912048 -0.733739972114563 -0.0621969997882843 -0.4066010117530823 -0.911486029624939
          0.336014986038208 -0.1602959930896759 -0.9281160235404968 -0.5919409990310669 -0.7506840229034424 -0.29339200258255005
          -0.7519639730453491 -0.6436300277709961 0.14244499802589417 -0.966497004032135 0.021088000386953354 -0.2558099925518036
          -0.7438979744911194 -0.5220419764518738 0.4172390103340149 -0.6401730179786682 -0.3125779926776886 0.7017650008201599
          -0.7882440090179443 0.3826969861984253 0.48188701272010803 -0.45539599657058716 0.10873699933290482 0.8836230039596558
          -0.7676820158958435 0.2409529983997345 0.5938069820404053 0.5793499946594238 0.3811039924621582 0.7204949855804443
          0.7287729978561401 0.6820369958877563 0.060947999358177185 -0.5541809797286987 0.544277012348175 0.6297979950904846
          0.36922699213027954 0.42652198672294617 0.8256819844245911 0.7180579900741577 0.4865899980068207 -0.4976179897785187
          0.5300469994544983 0.21013100445270538 -0.8215199708938599 -0.6497089862823486 -0.20772700011730194 -0.7312510013580322
          -0.59368497133255 -0.5794849991798401 -0.5583320260047913 -0.6011369824409485 0.4053040146827698 -0.6887400150299072
          0.07530000060796738 -0.1286350041627884 -0.9888290166854858 0.2960110008716583 0.017336999997496605 -0.9550269842147827
          0.7769110202789307 0.4708079993724823 -0.4180310070514679 0.7334359884262085 0.09756000339984894 -0.6727210283279419
          -0.8351860046386719 0.16360600292682648 -0.525068998336792 -0.8928179740905762 0.2761009931564331 0.3558720052242279
          -0.9156849980354309 0.4005410075187683 0.03298800066113472 -0.23756900429725647 0.9572439789772034 -0.16505999863147736
          -0.2930090129375458 0.9466630220413208 -0.1340699940919876 -0.7172819972038269 0.6953619718551636 -0.04446300119161606
          -0.4547879993915558 0.886572003364563 -0.0846019983291626 0.7878419756889343 0.47578999400138855 0.3910619914531708
          0.8520410060882568 0.5227680206298828 0.02719699963927269 -0.5198130011558533 0.8227739930152893 0.2298640012741089
          -0.875262975692749 0.38100600242614746 -0.2979069948196411 0.6535729765892029 0.6391670107841492 0.4053489863872528
          -0.7951779961585999 0.21882300078868866 -0.5655149817466736 -0.6781600117683411 0.6873319745063782 -0.2601430118083954
          -0.642283022403717 0.7045490145683289 -0.301800012588501 -0.08181899785995483 0.34435901045799255 -0.9352660179138184
          -0.46578100323677063 0.5906810164451599 -0.6588960289955139 -0.5018879771232605 0.8625010251998901 -0.06480400264263153
          -0.7884799838066101 0.5570480227470398 -0.26076000928878784 -0.6881660223007202 0.7235900163650513 0.05333299934864044
          0.1410360038280487 0.37023401260375977 -0.9181699752807617 0.37902799248695374 0.5894989967346191 -0.7133219838142395
          0.6888009905815125 0.29181501269340515 -0.6636239886283875 0.8905389904975891 0.35334500670433044 -0.2865090072154999
          0.836887001991272 0.3448910117149353 -0.4250530004501343 -0.4578239917755127 0.8840749859809875 -0.09385500103235245
          -0.42251500487327576 0.9059889912605286 0.025803999975323677 -0.2205120027065277 0.9740030169487 -0.051885999739170074
          -0.18753699958324432 0.9820860028266907 0.018338000401854515 -0.4023739993572235 0.9131280183792114 -0.06551200151443481
          -0.8012109994888306 0.5824080109596252 -0.1373409926891327 0.29733800888061523 0.9541860222816467 0.033466000109910965
          0.8883010149002075 0.42419299483299255 -0.17601700127124786 0.6980159878730774 0.6623700261116028 -0.2721030116081238
          -0.6644350290298462 0.7444300055503845 0.0659480020403862 -0.9292899966239929 0.2735680043697357 -0.24815499782562256
          -0.9836649894714355 0.1564120054244995 -0.08910500258207321 -0.9787690043449402 0.15164899826049805 -0.13788799941539764
          -0.3921529948711395 0.7212210297584534 -0.5710129737854004 -0.8324800133705139 0.5479050278663635 0.08233000338077545
          -0.5527870059013367 0.8332629799842834 0.009940999560058117 -0.6833630204200745 0.6870160102844238 -0.24703200161457062
          -0.8587790131568909 0.4633899927139282 -0.21855899691581726 -0.908972978591919 0.41330400109291077 0.0542990006506443
          -0.12063399702310562 0.9077969789505005 -0.40168601274490356 -0.7257159948348999 0.6423649787902832 0.2463800013065338
          -0.6708130240440369 0.7414690256118774 0.015283999964594841 -0.8398650288581848 0.5424630045890808 -0.01900400035083294
          -0.8733869791030884 0.41933101415634155 0.2477020025253296 -0.7954549789428711 0.5655750036239624 -0.2176620066165924
          -0.9691939949989319 0.23780399560928345 -0.06413599848747253 -0.9921020269393921 0.11750400066375732 -0.04389699921011925
          -0.9262319803237915 0.164792001247406 -0.33902400732040405 -0.917963981628418 0.3865549862384796 -0.08897799998521805
          <InformationKey name="L2_NORM_RANGE" location="vtkDataArray" length="2">
            <Value index="0">
              0.99999934694
            </Value>
            <Value index="1">
              1.0000006939
            </Value>
          </InformationKey>
        </DataArray>
      </PointData>
      <CellData>
      </CellData>
      <Points>
        <DataArray type="Float32" Name="Points" NumberOfComponents="3" format="ascii" RangeMin="0.14282527254847466" RangeMax="0.16832864535827466">
          0.04397699981927872 -0.15948599576950073 0.02550099976360798 0.04482699930667877 -0.15960800647735596 0.02617100067436695
          0.04369800165295601 -0.1594270020723343 0.026272999122738838 0.04257600009441376 -0.158610001206398 0.02632099948823452
          0.04463899880647659 -0.15940600633621216 0.024901999160647392 0.04254800081253052 -0.15851600468158722 0.02490600012242794
          0.043473001569509506 -0.15895800292491913 0.02869199961423874 0.045207999646663666 -0.15928800404071808 0.024746999144554138
          0.04415600001811981 -0.15920700132846832 0.028748000040650368 0.046925000846385956 -0.15741099417209625 0.02830599993467331
          0.04708699882030487 -0.15808899700641632 0.025180000811815262 0.041345998644828796 -0.1569650024175644 0.028551999479532242
          0.04084499925374985 -0.15649999678134918 0.026830999180674553 0.045857999473810196 -0.1549769937992096 0.02281999960541725
          0.041641999036073685 -0.15728899836540222 0.024486999958753586 0.04055500030517578 -0.15615999698638916 0.02549000084400177
          0.043818000704050064 -0.15883299708366394 0.030553000047802925 0.04275299981236458 -0.1582150012254715 0.029582999646663666
          0.04655800014734268 -0.1582150012254715 0.0242139995098114 0.04550199955701828 -0.15907999873161316 0.030945999547839165
          0.04698500037193298 -0.1579049974679947 0.03026599995791912 0.047022998332977295 -0.15530499815940857 0.028044000267982483
          0.04773499816656113 -0.15583699941635132 0.030233999714255333 0.047547999769449234 -0.15614700317382812 0.02427699975669384
          0.04745600000023842 -0.15523600578308105 0.025962000712752342 0.040098000317811966 -0.1562429964542389 0.02824299968779087
          0.03309699892997742 -0.15042300522327423 0.029930999502539635 0.040929000824689865 -0.1557379961013794 0.030628999695181847
          0.03965400159358978 -0.15609200298786163 0.026712000370025635 0.04689899832010269 -0.15698100626468658 0.023574000224471092
          0.0464170016348362 -0.1555429995059967 0.02297000028192997 0.0435510016977787 -0.15411999821662903 0.02275400049984455
          0.044367000460624695 -0.15422199666500092 0.022711999714374542 0.041579000651836395 -0.15597300231456757 0.023816000670194626
          0.04530100151896477 -0.15398399531841278 0.022856999188661575 0.04597799852490425 -0.15442200005054474 0.023000000044703484
          0.04079199954867363 -0.1549839973449707 0.024098999798297882 0.03956599906086922 -0.15569999814033508 0.02565000019967556
          0.0445609986782074 -0.1587740033864975 0.03202600032091141 0.04184199869632721 -0.15609599649906158 0.031863998621702194
          0.045448001474142075 -0.15877099335193634 0.03216199949383736 0.04673999920487404 -0.15768000483512878 0.03241800144314766
          0.04542800039052963 -0.15362100303173065 0.027814999222755432 0.04712799936532974 -0.15416200459003448 0.03008200041949749
          0.047272998839616776 -0.15512500703334808 0.03248399868607521 0.04741699993610382 -0.15599800646305084 0.03249400109052658
          0.046925000846385956 -0.15431199967861176 0.03245300054550171 0.0470069982111454 -0.15474200248718262 0.02365100011229515
          0.03611600026488304 -0.1533149927854538 0.026870999485254288 0.04076800122857094 -0.1550700068473816 0.03128400072455406
          0.03520600125193596 -0.15249399840831757 0.026247000321745872 0.03063799999654293 -0.14851300418376923 0.02974499948322773
          0.03412900120019913 -0.14960399270057678 0.031036999076604843 0.029696999117732048 -0.14634500443935394 0.03150400146842003
          0.03920400142669678 -0.15358999371528625 0.03140300139784813 0.04125300049781799 -0.1551620066165924 0.03157300129532814
          0.0453450009226799 -0.15346600115299225 0.02315099909901619 0.04299100115895271 -0.15313899517059326 0.023729000240564346
          0.04022800177335739 -0.15303799510002136 0.024135999381542206 0.03922300040721893 -0.1541139930486679 0.024351999163627625
          0.04163099825382233 -0.15376700460910797 0.024369999766349792 0.04533199965953827 -0.15827199816703796 0.03244499862194061
          0.04284600168466568 -0.15632900595664978 0.032308999449014664 0.041861001402139664 -0.15460899472236633 0.03223799914121628
          0.046250998973846436 -0.15707099437713623 0.03284800052642822 0.046828001737594604 -0.1558379977941513 0.033048998564481735
          0.04509799927473068 -0.15309500694274902 0.03013399988412857 0.041978999972343445 -0.1531209945678711 0.025815000757575035
          0.0450269989669323 -0.15328699350357056 0.032253000885248184 0.046268999576568604 -0.15460899472236633 0.03308599814772606
          0.04495999962091446 -0.15396499633789062 0.03293599933385849 0.04073299840092659 -0.1546649932861328 0.031676001846790314
          0.036295000463724136 -0.15124599635601044 0.023634999990463257 0.034327998757362366 -0.14903900027275085 0.022623000666499138
          0.031122999265789986 -0.14824900031089783 0.02322399988770485 0.022450000047683716 -0.14448800683021545 0.0251499991863966
          0.024090999737381935 -0.14498299360275269 0.029802000150084496 0.024504000321030617 -0.1437010020017624 0.030980000272393227
          0.026698000729084015 -0.1433819979429245 0.032451000064611435 0.036942001432180405 -0.149850994348526 0.031153999269008636
          0.03925500065088272 -0.15176500380039215 0.031300999224185944 0.031091000884771347 -0.1451530009508133 0.0319410003721714
          0.028999000787734985 -0.14358900487422943 0.03252600133419037 0.041016001254320145 -0.1537729948759079 0.03162100166082382
          0.040132999420166016 -0.1523970067501068 0.03116299957036972 0.03945299983024597 -0.1523980051279068 0.024178000167012215
          0.038072001188993454 -0.1516689956188202 0.02367500029504299 0.042833998799324036 -0.15502099692821503 0.03263700008392334
          0.043956998735666275 -0.15316399931907654 0.03214100003242493 0.04129000008106232 -0.1530819982290268 0.03117400035262108
          0.0418890006840229 -0.15281899273395538 0.029758000746369362 0.03966600075364113 -0.15169300138950348 0.026333000510931015
          0.040490999817848206 -0.1521580070257187 0.02841399982571602 0.037516999989748 -0.15082399547100067 0.023252999410033226
          0.03502599895000458 -0.14877599477767944 0.022415999323129654 0.025949999690055847 -0.14570799469947815 0.02224699966609478
          0.02643200010061264 -0.14464999735355377 0.020692000165581703 0.02789900079369545 -0.14371299743652344 0.019763000309467316
          0.03069699928164482 -0.14503799378871918 0.020555000752210617 0.023096000775694847 -0.14458200335502625 0.02371699921786785
          0.022260000929236412 -0.14427399635314941 0.026531999930739403 0.0217250008136034 -0.14366500079631805 0.02528100088238716
          0.022763000801205635 -0.14383700489997864 0.029493000358343124 0.023190999403595924 -0.1434130072593689 0.030282000079751015
          0.023287000134587288 -0.14253899455070496 0.03064900077879429 0.025265999138355255 -0.1417820006608963 0.03234900161623955
          0.02284199930727482 -0.14299200475215912 0.030042000114917755 0.031605999916791916 -0.14469599723815918 0.03167999908328056
          0.03539099916815758 -0.1474830061197281 0.02775599993765354 0.025885000824928284 -0.14036500453948975 0.031895000487565994
          0.028901999816298485 -0.1409049928188324 0.032010000199079514 0.03838000074028969 -0.15102000534534454 0.024020999670028687
          0.03549300134181976 -0.14844000339508057 0.022523000836372375 0.024848999455571175 -0.1433189958333969 0.020702000707387924
          0.024105999618768692 -0.14456500113010406 0.022425999864935875 0.02659899927675724 -0.1416579931974411 0.01913600042462349
          0.027828000485897064 -0.14193899929523468 0.01912900060415268 0.02871299907565117 -0.14143900573253632 0.019176999107003212
          0.03223700076341629 -0.14451399445533752 0.021827999502420425 0.031036999076604843 -0.1435759961605072 0.020793000236153603
          0.022307999432086945 -0.14377999305725098 0.02384999953210354 0.022290000692009926 -0.14312699437141418 0.029224999248981476
          0.02168099954724312 -0.1433670073747635 0.02643899992108345 0.022245999425649643 -0.14309200644493103 0.02624800056219101
          0.022871999070048332 -0.14341099560260773 0.024109000340104103 0.025495000183582306 -0.1409900039434433 0.03192000091075897
          0.02356399968266487 -0.142426997423172 0.03022100031375885 0.031018000096082687 -0.1430249959230423 0.031098999083042145
          0.032010000199079514 -0.14376400411128998 0.025564000010490417 0.026673000305891037 -0.13906200230121613 0.031036000698804855
          0.027201000601053238 -0.14009100198745728 0.02895599976181984 0.029928000643849373 -0.14020100235939026 0.030709000304341316
          0.02317900024354458 -0.14372099936008453 0.022799000144004822 0.024764999747276306 -0.14291299879550934 0.021105000749230385
          0.023956000804901123 -0.14330899715423584 0.02195899933576584 0.02752400003373623 -0.14126700162887573 0.019029000774025917
          0.02723100036382675 -0.14081600308418274 0.01951500028371811 0.025141000747680664 -0.1427440047264099 0.02153399959206581
          0.027101999148726463 -0.14054100215435028 0.019937999546527863 0.0257750004529953 -0.142193004488945 0.02258400060236454
          0.028334999457001686 -0.1409360021352768 0.01930299960076809 0.029363999143242836 -0.140066996216774 0.02005700021982193
          0.03026299923658371 -0.1415330022573471 0.01988000050187111 0.03167499974370003 -0.14348599314689636 0.02191999927163124
          0.030486999079585075 -0.1410199999809265 0.020748000591993332 0.02432899922132492 -0.1429940015077591 0.022362999618053436
          0.0224629994481802 -0.14285600185394287 0.02818799950182438 0.023142000660300255 -0.14268900454044342 0.028721999377012253
          0.023934999480843544 -0.14339900016784668 0.024226000532507896 0.025608999654650688 -0.14289499819278717 0.02672399953007698
          0.02698500081896782 -0.14145199954509735 0.027055999264121056 0.02813900075852871 -0.1379680037498474 0.025805000215768814
          0.03064800053834915 -0.14056499302387238 0.02158699929714203 0.02979299984872341 -0.13921299576759338 0.021726999431848526
          0.0275030005723238 -0.13839200139045715 0.02994300052523613 0.027348000556230545 -0.13887600600719452 0.030054999515414238
          0.027341000735759735 -0.13884299993515015 0.029211999848484993 0.027685999870300293 -0.13994400203227997 0.027790000662207603
          0.027786999940872192 -0.1391340047121048 0.0205329991877079 0.027638999745249748 -0.13961000740528107 0.021418999880552292
          0.025357000529766083 -0.14288300275802612 0.025558000430464745 0.026757000014185905 -0.1418839991092682 0.025218000635504723
          0.027695000171661377 -0.14073899388313293 0.0248429998755455 0.0279959999024868 -0.14017100632190704 0.024095000699162483
          0.0282639991492033 -0.138824000954628 0.021097000688314438 0.026669999584555626 -0.14201100170612335 0.026133999228477478
          0.02637599967420101 -0.14186599850654602 0.025634000077843666 0.026936000213027 -0.1412470042705536 0.0257399994879961
          0.027525000274181366 -0.1407189965248108 0.026151999831199646 0.02842400036752224 -0.13818499445915222 0.022272000089287758
          0.027410000562667847 -0.1386220008134842 0.028317000716924667 0.027567999437451363 -0.13983400166034698 0.025671999901533127
          0.027852000668644905 -0.140051007270813 0.02493000030517578 0.027274999767541885 -0.14044499397277832 0.025631999596953392
          <InformationKey name="L2_NORM_RANGE" location="vtkDataArray" length="2">
            <Value index="0">
              0.14282527255
            </Value>
            <Value index="1">
              0.16832864536
            </Value>
          </InformationKey>
        </DataArray>
      </Points>
      <Verts>
        <DataArray type="Int64" Name="connectivity" format="ascii" RangeMin="1e+299" RangeMax="-1e+299">
        </DataArray>
        <DataArray type="Int64" Name="offsets" format="ascii" RangeMin="1e+299" RangeMax="-1e+299">
        </DataArray>
      </Verts>
      <Lines>
        <DataArray type="Int64" Name="connectivity" format="ascii" RangeMin="1e+299" RangeMax="-1e+299">
        </DataArray>
        <DataArray type="Int64" Name="offsets" format="ascii" RangeMin="1e+299" RangeMax="-1e+299">
        </DataArray>
      </Lines>
      <Strips>
        <DataArray type="Int64" Name="connectivity" format="ascii" RangeMin="1e+299" RangeMax="-1e+299">
        </DataArray>
        <DataArray type="Int64" Name="offsets" format="ascii" RangeMin="1e+299" RangeMax="-1e+299">
        </DataArray>
      </Strips>
      <Polys>
        <DataArray type="Int32" Name="connectivity" format="ascii" RangeMin="0" RangeMax="173">
          0 1 2 2 3 0
          1 0 4 5 4 0
          3 5 0 6 2 1
          1 4 7 1 8 6
          1 9 8 1 10 9
          1 7 10 6 3 2
          6 11 3 11 12 3
          3 12 5 13 7 4
          4 5 13 5 14 13
          5 15 14 12 15 5
          6 8 16 17 11 6
          6 16 17 13 18 7
          7 18 10 19 16 8
          20 8 9 19 8 20
          21 9 10 21 22 9
          9 22 20 10 18 23
          24 10 23 21 10 24
          12 11 25 26 25 11
          26 11 27 17 27 11
          15 12 28 28 12 25
          13 29 18 13 30 29
          13 31 32 13 33 31
          13 14 33 34 13 32
          35 30 13 34 35 13
          33 14 36 36 14 15
          36 15 37 28 37 15
          16 19 38 17 16 38
          17 38 39 17 39 27
          18 29 23 19 40 38
          41 19 20 41 40 19
          41 20 22 21 24 42
          21 43 22 42 43 21
          22 44 45 46 22 43
          46 44 22 41 22 45
          24 23 47 29 47 23
          47 42 24 25 48 28
          48 25 26 27 49 26
          26 50 48 50 26 51
          26 52 53 51 26 53
          26 54 52 26 49 54
          55 49 27 55 27 39
          28 48 37 29 30 47
          35 47 30 31 34 32
          56 34 31 31 36 57
          36 31 33 57 56 31
          56 35 34 56 47 35
          58 36 59 37 59 36
          60 36 58 60 57 36
          59 37 48 38 40 61
          39 38 61 39 62 63
          39 61 62 55 39 63
          41 64 40 61 40 64
          41 45 65 64 41 65
          66 42 67 43 42 66
          42 57 67 42 47 56
          42 56 57 68 43 66
          46 43 68 44 65 45
          44 46 69 65 44 69
          46 70 69 70 46 68
          59 48 50 49 71 54
          63 71 49 55 63 49
          72 59 50 73 72 50
          73 50 74 74 50 51
          75 51 76 75 74 51
          51 77 76 77 51 78
          78 51 53 79 53 52
          52 80 79 52 54 80
          53 79 81 82 78 53
          81 82 53 71 83 54
          54 83 84 54 84 80
          67 57 60 85 67 58
          58 67 60 59 85 58
          86 59 72 59 86 85
          61 64 62 87 63 62
          62 64 65 62 65 69
          70 62 69 62 70 87
          63 87 70 63 70 88
          71 63 83 63 88 89
          83 63 89 67 90 66
          89 66 90 66 88 68
          66 89 88 67 85 91
          67 92 90 91 92 67
          70 68 88 72 93 86
          93 72 73 73 94 93
          74 95 73 96 97 73
          97 98 73 98 94 73
          95 96 73 74 99 95
          74 75 99 100 75 76
          101 75 100 99 75 101
          100 76 102 103 76 77
          103 102 76 104 77 105
          77 104 106 103 77 106
          77 78 105 82 105 78
          81 79 107 79 92 108
          92 79 80 79 108 107
          92 80 84 82 81 107
          105 82 109 82 107 110
          82 110 109 83 89 84
          92 84 90 90 84 89
          85 111 91 85 86 111
          93 111 86 91 111 108
          92 91 108 93 112 111
          93 94 112 94 98 112
          113 95 114 96 95 113
          95 99 114 96 113 97
          97 115 116 115 97 113
          116 117 97 97 117 98
          118 98 119 119 98 117
          118 112 98 101 120 99
          99 120 114 100 102 121
          121 122 100 100 122 101
          101 122 123 123 124 101
          124 120 101 121 102 103
          103 106 121 105 125 104
          106 104 126 126 104 125
          109 125 105 121 106 126
          107 108 127 107 127 110
          108 128 127 118 128 108
          108 111 118 109 110 129
          125 109 130 109 129 130
          131 110 127 110 131 129
          112 118 111 114 132 113
          113 133 115 113 132 134
          113 134 133 120 132 114
          116 115 135 136 135 115
          133 137 115 136 115 138
          115 139 138 115 137 139
          140 117 116 116 135 140
          117 141 142 141 117 140
          117 142 119 143 118 119
          128 118 143 144 143 119
          144 119 142 145 132 120
          124 145 120 122 121 146
          126 147 121 146 121 147
          146 123 122 147 123 146
          123 148 124 149 148 123
          149 123 147 124 148 145
          126 125 149 125 150 149
          125 130 150 149 147 126
          131 127 128 128 151 131
          128 143 152 128 153 151
          153 128 152 154 129 131
          155 129 154 130 129 155
          130 155 156 156 157 130
          130 157 150 151 154 131
          145 134 132 137 133 134
          145 137 134 158 140 135
          136 158 135 136 138 158
          139 137 145 158 138 159
          139 159 138 160 139 145
          160 161 139 139 162 163
          139 163 159 139 161 162
          158 141 140 153 142 141
          153 141 164 141 158 164
          153 144 142 144 152 143
          144 153 152 160 145 148
          160 148 149 149 165 166
          165 149 150 166 160 149
          167 150 168 157 168 150
          167 165 150 151 153 169
          151 169 170 170 154 151
          153 164 169 156 154 170
          154 156 155 157 156 170
          170 171 157 168 157 171
          159 164 158 169 164 159
          169 159 163 160 166 161