<?xml version="1.0"?>
<VTKFile type="PolyData" version="0.1" byte_order="LittleEndian" header_type="UInt32" compressor="vtkZLibDataCompressor">
  <PolyData>
    <Piece NumberOfPoints="132" NumberOfVerts="0" NumberOfLines="0" NumberOfStrips="0" NumberOfPolys="260">
      <PointData Normals="Normals">
        <DataArray type="Float32" Name="Normals" NumberOfComponents="3" format="ascii" RangeMin="0.999999321297287" RangeMax="1.0000006652789672">
          -0.4179530143737793 -0.5357139706611633 0.7337070107460022 0.10112100094556808 -0.29907798767089844 0.948855996131897
          -0.19599400460720062 -0.2452940046787262 0.949429988861084 -0.6993650197982788 -0.4475899934768677 0.5572710037231445
          -0.09676100313663483 -0.8594210147857666 0.5020300149917603 0.33351099491119385 -0.5681800246238708 0.7522910237312317
          -0.6961560249328613 -0.7169409990310669 -0.03691200166940689 -0.19026200473308563 -0.9816910028457642 -0.009128999896347523
          0.8810030221939087 -0.2725769877433777 0.38669800758361816 0.8316799998283386 0.05365600064396858 0.5526570081710815
          -0.12620100378990173 0.11359699815511703 0.9854789972305298 0.3064340054988861 -0.004395999945700169 0.951882004737854
          -0.39634400606155396 -0.18158100545406342 0.8999670147895813 -0.29805898666381836 0.1289130002260208 0.9458019733428955
          -0.8062300086021423 -0.3841789960861206 0.44988998770713806 -0.807004988193512 -0.3069320023059845 -0.5045149922370911
          0.3850019872188568 -0.9029889702796936 0.19074499607086182 0.8045859932899475 -0.5637490153312683 0.18662500381469727
          -0.7039780020713806 -0.5841230154037476 -0.403999000787735 -0.10644099861383438 -0.9904999732971191 -0.08706100285053253
          0.5676310062408447 -0.8020539879798889 -0.18575599789619446 0.9342920184135437 -0.32298898696899414 -0.15092100203037262
          0.9786689877510071 0.20027799904346466 -0.045784998685121536 0.6756439805030823 0.5494999885559082 0.4914819896221161
          -0.22341500222682953 0.7685840129852295 0.599469006061554 0.2543509900569916 0.8880730271339417 0.38292500376701355
          -0.45284900069236755 0.27943798899650574 0.8466650247573853 -0.16303299367427826 -0.20428499579429626 0.9652400016784668
          -0.8514660000801086 -0.5164080262184143 -0.09126099944114685 -0.7723079919815063 -0.4824090003967285 0.41330599784851074
          -0.3707529902458191 -0.09540499746799469 -0.9238179922103882 -0.2678070068359375 0.19377300143241882 -0.9437860250473022
          -0.725941002368927 -0.3875559866428375 -0.5681639909744263 -0.43423599004745483 0.20542100071907043 -0.8770639896392822
          -0.4087679982185364 -0.11319100111722946 -0.9055920243263245 -0.41614699363708496 0.07344599813222885 -0.9063259959220886
          -0.24936999380588531 -0.7052199840545654 -0.663686990737915 -0.24233999848365784 -0.9677820205688477 -0.06833700090646744
          -0.366813987493515 -0.3055729866027832 -0.8786759972572327 0.5253459811210632 -0.8445600271224976 -0.10358499735593796
          0.48939698934555054 -0.8425570130348206 -0.22491799294948578 0.8442729711532593 -0.5321710109710693 -0.06322100013494492
          0.9996439814567566 0.026667000725865364 0.0010939999483525753 0.7650420069694519 0.6431599855422974 0.03248799964785576
          0.1832910031080246 0.6728590130805969 0.7167050242424011 0.6325839757919312 0.7677599787712097 0.10189100354909897
          -0.170196995139122 -0.26305100321769714 0.9496510028839111 -0.8114349842071533 -0.5070909857749939 0.29057198762893677
          0.46219199895858765 0.048650000244379044 0.8854439854621887 0.7603039741516113 0.3021770119667053 0.5750020146369934
          -0.8502870202064514 -0.4648120105266571 -0.24690300226211548 -0.30778801441192627 -0.1418900042772293 -0.9408159852027893
          -0.67010098695755 -0.2921060025691986 -0.6823769807815552 0.707726001739502 0.42469000816345215 -0.5645899772644043
          0.4814560115337372 0.19625699520111084 -0.8542150259017944 0.22180399298667908 0.7207000255584717 -0.6568059921264648
          -0.2524630129337311 0.5721049904823303 -0.7803580164909363 -0.2516610026359558 0.47078800201416016 -0.8455920219421387
          0.18917199969291687 -0.24772900342941284 -0.9501810073852539 0.21104200184345245 0.3172459900379181 -0.9245629906654358
          -0.09085699915885925 0.3123129904270172 -0.9456239938735962 0.1961289942264557 0.08756600320339203 -0.9766600131988525
          0.8545590043067932 -0.30693501234054565 -0.41894999146461487 0.9238479733467102 -0.3732660114765167 0.0847259983420372
          0.9817150235176086 0.1876700073480606 0.031867001205682755 0.5052980184555054 0.8625280261039734 -0.026812000200152397
          0.7675129771232605 0.6408290266990662 -0.016172999516129494 0.63435298204422 0.7333559989929199 -0.2445099949836731
          -0.21380400657653809 -0.45562800765037537 0.8641129732131958 0.34065601229667664 -0.16456399857997894 0.9256740212440491
          -0.8436350226402283 -0.4603689908981323 -0.276297003030777 -0.7319729924201965 -0.44043299555778503 -0.5198410153388977
          -0.9517480134963989 -0.2831290066242218 0.11838000267744064 -0.9120330214500427 -0.31632599234580994 -0.26102399826049805
          -0.697920024394989 -0.4250839948654175 0.5763779878616333 0.89301598072052 0.33878499269485474 0.296220988035202
          0.8916839957237244 0.1527940034866333 0.4260900020599365 -0.6756139993667603 -0.3314160108566284 -0.6585659980773926
          -0.09565799683332443 -0.1227170005440712 -0.9878209829330444 0.8890849947929382 0.4104140102863312 -0.20270200073719025
          0.5886369943618774 0.11006499826908112 -0.8008700013160706 0.884361982345581 0.09837699681520462 -0.4563170075416565
          0.8761810064315796 0.3619750142097473 -0.3182460069656372 0.024653999134898186 0.8175680041313171 -0.5753039717674255
          0.8106520175933838 0.25794199109077454 -0.5256519913673401 0.4263029992580414 0.7640380263328552 -0.48426398634910583
          0.6364229917526245 0.6237509846687317 -0.4537619948387146 0.3754810094833374 -0.26880499720573425 0.8869940042495728
          -0.1692740023136139 -0.17544299364089966 0.9698280096054077 -0.7130879759788513 -0.11160899698734283 -0.6921340227127075
          -0.9384369850158691 0.34413599967956543 0.03012399934232235 -0.9185619950294495 0.009198999963700771 0.39517098665237427
          -0.9621430039405823 0.24323999881744385 -0.1229420006275177 -0.7076079845428467 0.0836229994893074 0.7016389966011047
          0.9932510256767273 0.10082600265741348 0.05733000114560127 0.6239479780197144 0.015426999889314175 0.7813130021095276
          0.9263709783554077 0.3309270143508911 -0.17978599667549133 -0.3485049903392792 0.21157599985599518 -0.9131159782409668
          -0.15907399356365204 0.32429200410842896 -0.9324859976768494 0.580748975276947 -0.10062699764966965 -0.8078399896621704
          0.3310930132865906 0.09995900094509125 -0.9382889866828918 0.016290999948978424 0.3607479929924011 -0.9325209856033325
          0.8545179963111877 -0.14334499835968018 -0.49924999475479126 0.9844800233840942 -0.04587399959564209 -0.1693979948759079
          0.9796779751777649 0.0174189992249012 -0.19982099533081055 0.03616200014948845 0.3138180077075958 0.9487940073013306
          -0.24574199318885803 0.30940499901771545 0.918628990650177 -0.738851010799408 0.5811179876327515 -0.34117600321769714
          -0.8226990103721619 0.5635250210762024 0.0748710036277771 -0.7382280230522156 0.673600971698761 0.0357929989695549
          -0.589622974395752 0.7797669768333435 0.2104959934949875 -0.5445230007171631 0.8355640172958374 -0.07298900187015533
          -0.3663940131664276 0.6537830233573914 0.662060022354126 0.9993469715118408 -0.011398999951779842 0.03428399935364723
          0.9923250079154968 0.11906400322914124 -0.03337499871850014 0.8566200137138367 0.49932101368904114 0.12992499768733978
          0.4231559932231903 0.49510401487350464 0.7588220238685608 -0.27368998527526855 0.8172450065612793 -0.5071539878845215
          -0.2131589949131012 0.48322901129722595 -0.8491479754447937 0.8817669749259949 0.1354369968175888 -0.45182299613952637
          0.2339179962873459 0.552295982837677 -0.8001570105552673 0.5554159879684448 0.6394199728965759 -0.5316519737243652
          -0.008960000239312649 0.6181210279464722 -0.7860320210456848 -0.09141899645328522 0.4007279872894287 0.9116250276565552
          0.050023000687360764 0.6300070285797119 0.7749770283699036 -0.4812310039997101 0.7688239812850952 0.42110300064086914
          -0.15828700363636017 0.976859986782074 0.1438409984111786 -0.5920330286026001 0.7686060070991516 0.2423650026321411
          0.3524959981441498 0.9236639738082886 -0.15030300617218018 0.028762999922037125 0.9987679719924927 0.040435001254081726
          0.11022800207138062 0.8959010243415833 -0.4303610026836395 -0.3430120050907135 0.9232850074768066 0.17288100719451904
          <InformationKey name="L2_NORM_RANGE" location="vtkDataArray" length="2">
            <Value index="0">
              0.9999993213
            </Value>
            <Value index="1">
              1.0000006653
            </Value>
          </InformationKey>
        </DataArray>
      </PointData>
      <CellData>
      </CellData>
      <Points>
        <DataArray type="Float32" Name="Points" NumberOfComponents="3" format="ascii" RangeMin="0.10043409945078546" RangeMax="0.14665114776745414">
          0.021265000104904175 -0.1415189951658249 -0.022206999361515045 0.025033999234437943 -0.1391250044107437 -0.020639000460505486
          0.022458000108599663 -0.13851700723171234 -0.021595999598503113 0.01928200013935566 -0.1395290046930313 -0.022141000255942345
          0.02214900031685829 -0.14191600680351257 -0.022123999893665314 0.02463800087571144 -0.14097900688648224 -0.021391000598669052
          0.020106999203562737 -0.14101000130176544 -0.023919999599456787 0.021880000829696655 -0.14214399456977844 -0.02380399964749813
          0.026131000369787216 -0.13868600130081177 -0.02147199958562851 0.026101000607013702 -0.13757899403572083 -0.021157000213861465
          0.021486999467015266 -0.13438500463962555 -0.02017899975180626 0.024622000753879547 -0.13704000413417816 -0.020013000816106796
          0.01923700049519539 -0.13607899844646454 -0.020937999710440636 0.01974100060760975 -0.13419100642204285 -0.020685000345110893
          0.01802000030875206 -0.1362760066986084 -0.022306999191641808 0.017849000170826912 -0.13505899906158447 -0.028387999162077904
          0.024661000818014145 -0.1417659968137741 -0.02282699942588806 0.025438999757170677 -0.1408499926328659 -0.022311000153422356
          0.02095099911093712 -0.14051300287246704 -0.02983199991285801 0.021984999999403954 -0.1415719985961914 -0.02645000070333481
          0.024671999737620354 -0.14169999957084656 -0.02371099963784218 0.02607100084424019 -0.13953299820423126 -0.024088000878691673
          0.026345999911427498 -0.13762600719928741 -0.023486999794840813 0.024960000067949295 -0.1352120041847229 -0.02065899968147278
          0.02047399990260601 -0.13390399515628815 -0.020560000091791153 0.02254899963736534 -0.13353599607944489 -0.021098999306559563
          0.018857000395655632 -0.13444100320339203 -0.021095000207424164 0.016814999282360077 -0.13086600601673126 -0.020820999518036842
          0.013779000379145145 -0.12947900593280792 -0.025319000706076622 0.012740000151097775 -0.12723399698734283 -0.02232000045478344
          0.014817999675869942 -0.12588700652122498 -0.028232000768184662 0.018592000007629395 -0.13317500054836273 -0.02948799915611744
          0.013226999901235104 -0.12716799974441528 -0.026861000806093216 0.02001900039613247 -0.1343419998884201 -0.030412999913096428
          0.020080000162124634 -0.13666099309921265 -0.030334999784827232 0.02049499936401844 -0.13495700061321259 -0.03073200024664402
          0.02242100052535534 -0.14162400364875793 -0.03020399995148182 0.022374000400304794 -0.14193500578403473 -0.028883999213576317
          0.022151000797748566 -0.14033299684524536 -0.03086400032043457 0.02429099939763546 -0.14103899896144867 -0.026249000802636147
          0.02442000061273575 -0.14137400686740875 -0.03039100021123886 0.02498600073158741 -0.1402139961719513 -0.02617800049483776
          0.025728000327944756 -0.13745899498462677 -0.025992000475525856 0.024846000596880913 -0.135452002286911 -0.025824999436736107
          0.020600000396370888 -0.13339699804782867 -0.021626999601721764 0.021263999864459038 -0.13292500376701355 -0.02339399978518486
          0.009960999712347984 -0.11732300370931625 -0.018845999613404274 0.0021039999555796385 -0.10993599891662598 -0.020569000393152237
          0.013470999896526337 -0.12027300149202347 -0.019564000889658928 0.016795000061392784 -0.12535299360752106 -0.02098100073635578
          0.007031999994069338 -0.11881399899721146 -0.024935999885201454 0.008414000272750854 -0.1143139973282814 -0.02714800089597702
          0.007329999934881926 -0.11864600330591202 -0.025989999994635582 0.0187740009278059 -0.12959299981594086 -0.028922000899910927
          0.00949000008404255 -0.11116699874401093 -0.02744000032544136 0.020114999264478683 -0.13244900107383728 -0.029180999845266342
          0.019790999591350555 -0.1331070065498352 -0.02965099923312664 0.020576000213623047 -0.13332599401474 -0.030153000727295876
          0.0250410009175539 -0.13910099864006042 -0.03153099864721298 0.02445800043642521 -0.13623599708080292 -0.03151100128889084
          0.02205199934542179 -0.13445299863815308 -0.03108000010251999 0.025043999776244164 -0.1371850073337555 -0.031612999737262726
          0.02566000074148178 -0.13962100446224213 -0.030856000259518623 0.026096999645233154 -0.13949799537658691 -0.028435999527573586
          0.026295000687241554 -0.13716700673103333 -0.028365999460220337 0.022634999826550484 -0.1332309991121292 -0.028087999671697617
          0.02555900067090988 -0.13586899638175964 -0.028410999104380608 0.020632000640034676 -0.13242000341415405 -0.02848700061440468
          0.007294000126421452 -0.11124999821186066 -0.017456000670790672 0.009329999797046185 -0.11087299883365631 -0.01756400056183338
          0.005532999988645315 -0.11608199775218964 -0.024517999961972237 0.0026859999634325504 -0.11095699667930603 -0.025104999542236328
          -0.00003400000059627928 -0.10585100203752518 -0.02077599987387657 0.0005569999921135604 -0.10548099875450134 -0.026280999183654785
          0.0013559999642893672 -0.10734599828720093 -0.018257999792695045 0.014386000111699104 -0.11962399631738663 -0.020603999495506287
          0.010823000222444534 -0.11073499917984009 -0.0189410001039505 0.00598399993032217 -0.11571899801492691 -0.02544499933719635
          0.0026599999982863665 -0.10257700085639954 -0.02884499914944172 0.011003999970853329 -0.1123490035533905 -0.025443000718951225
          0.008275999687612057 -0.1083419993519783 -0.027473999187350273 0.008510000072419643 -0.10743899643421173 -0.026743000373244286
          0.010002999566495419 -0.11077599972486496 -0.026308000087738037 0.020955000072717667 -0.1326490044593811 -0.02969999983906746
          0.025929000228643417 -0.1373019963502884 -0.030930999666452408 0.023118000477552414 -0.133774995803833 -0.030435999855399132
          0.02434300072491169 -0.13475200533866882 -0.030646000057458878 0.008170000277459621 -0.10727400332689285 -0.015829000622034073
          0.004401000216603279 -0.10401000082492828 -0.014096000231802464 0.0010160000529140234 -0.10364100337028503 -0.027753999456763268
          -0.00040099999750964344 -0.10355900228023529 -0.022298000752925873 0.0008870000019669533 -0.10306300222873688 -0.016860000789165497
          -0.00020700000459328294 -0.10287699848413467 -0.02542000077664852 0.0016120000509545207 -0.10224000364542007 -0.01584799960255623
          0.00974700041115284 -0.10543300211429596 -0.017170000821352005 0.008803999982774258 -0.10329599678516388 -0.015314999967813492
          0.009724999777972698 -0.10990899801254272 -0.02552199922502041 0.0024429999757558107 -0.10150200128555298 -0.02877799980342388
          0.003836000105366111 -0.10011299699544907 -0.02873699925839901 0.007888000458478928 -0.10570099949836731 -0.027876999229192734
          0.007946999743580818 -0.10192500054836273 -0.028293000534176826 0.00481799989938736 -0.09970799833536148 -0.028635000810027122
          0.009138000197708607 -0.10583700239658356 -0.026441000401973724 0.009573999792337418 -0.1060120016336441 -0.025088999420404434
          0.00930000003427267 -0.10768400132656097 -0.025275999680161476 0.006173999980092049 -0.10118900239467621 -0.01444500032812357
          0.003765000030398369 -0.101453997194767 -0.01477499958127737 0.0015279999934136868 -0.09971299767494202 -0.027892999351024628
          0.0004729999927803874 -0.10137200355529785 -0.0264699999243021 0.00107999995816499 -0.10145600140094757 -0.017847999930381775
          0.000826000003144145 -0.10213100165128708 -0.024598000571131706 0.0006689999718219042 -0.10267200320959091 -0.021366000175476074
          0.0032470000442117453 -0.09966699779033661 -0.015444000251591206 0.009456999599933624 -0.10604699701070786 -0.024064000695943832
          0.00916299968957901 -0.10309399664402008 -0.02399899996817112 0.009298999793827534 -0.0999549999833107 -0.017378000542521477
          0.007153000216931105 -0.10102099925279617 -0.01482400018721819 0.0031030001118779182 -0.0988989993929863 -0.027981000021100044
          0.0035989999305456877 -0.09968999773263931 -0.02829499915242195 0.008599000051617622 -0.1017019972205162 -0.027830999344587326
          0.005919999908655882 -0.09956599771976471 -0.02837900072336197 0.0076790000312030315 -0.09967000037431717 -0.027560999616980553
          0.004505000077188015 -0.09915799647569656 -0.028164999559521675 0.00468500005081296 -0.10051000118255615 -0.015285000205039978
          0.005468999966979027 -0.0993570014834404 -0.0155239999294281 0.0021299999207258224 -0.10078399628400803 -0.025880999863147736
          0.007706999778747559 -0.09845700114965439 -0.01827099919319153 0.004736999981105328 -0.09991099685430527 -0.023548999801278114
          0.006281000096350908 -0.09855400025844574 -0.02656099945306778 0.006560000125318766 -0.09825199842453003 -0.02332800067961216
          0.005022000055760145 -0.09851700067520142 -0.027428999543190002 0.00456599984318018 -0.09854400157928467 -0.026739999651908875
          <InformationKey name="L2_NORM_RANGE" location="vtkDataArray" length="2">
            <Value index="0">
              0.10043409945
            </Value>
            <Value index="1">
              0.14665114777
            </Value>
          </InformationKey>
        </DataArray>
      </Points>
      <Verts>
        <DataArray type="Int64" Name="connectivity" format="ascii" RangeMin="1e+299" RangeMax="-1e+299">
        </DataArray>
        <DataArray type="Int64" Name="offsets" format="ascii" RangeMin="1e+299" RangeMax="-1e+299">
        </DataArray>
      </Verts>
      <Lines>
        <DataArray type="Int64" Name="connectivity" format="ascii" RangeMin="1e+299" RangeMax="-1e+299">
        </DataArray>
        <DataArray type="Int64" Name="offsets" format="ascii" RangeMin="1e+299" RangeMax="-1e+299">
        </DataArray>
      </Lines>
      <Strips>
        <DataArray type="Int64" Name="connectivity" format="ascii" RangeMin="1e+299" RangeMax="-1e+299">
        </DataArray>
        <DataArray type="Int64" Name="offsets" format="ascii" RangeMin="1e+299" RangeMax="-1e+299">
        </DataArray>
      </Strips>
      <Polys>
        <DataArray type="Int32" Name="connectivity" format="ascii" RangeMin="0" RangeMax="131">
          0 1 2 2 3 0
          4 5 0 5 1 0
          6 0 3 4 0 7
          0 6 7 1 8 9
          10 2 1 10 1 11
          9 11 1 5 8 1
          12 3 2 10 13 2
          13 12 2 14 3 12
          15 6 3 3 14 15
          16 4 7 16 5 4
          5 16 17 8 5 17
          18 6 15 19 6 18
          7 6 19 20 7 19
          7 20 16 21 22 8
          9 8 22 8 17 21
          22 23 9 11 9 23
          10 24 13 25 24 10
          23 25 10 10 11 23
          12 26 14 26 12 13
          24 26 13 27 14 26
          28 15 14 29 14 27
          14 29 28 30 31 15
          15 28 32 15 32 30
          15 31 33 34 18 15
          34 15 35 15 33 35
          17 16 20 21 17 20
          18 36 37 19 18 37
          34 38 18 38 36 18
          39 19 40 40 19 37
          19 39 20 20 41 21
          20 39 41 22 21 42
          41 42 21 43 22 42
          43 23 22 23 43 25
          44 24 25 24 44 26
          45 25 43 44 25 45
          44 27 26 27 46 47
          47 29 27 48 46 27
          49 48 27 44 49 27
          29 47 28 28 47 50
          28 50 32 51 30 52
          30 32 52 30 53 31
          54 53 30 30 51 54
          53 55 31 55 56 31
          56 33 31 52 32 50
          56 57 33 57 35 33
          58 38 34 59 34 60
          61 34 59 61 58 34
          35 60 34 35 57 60
          36 58 40 36 40 37
          38 58 36 39 40 41
          62 40 58 40 63 41
          62 63 40 63 42 41
          42 64 43 63 64 42
          65 43 66 66 43 64
          65 45 43 49 44 45
          67 53 45 53 49 45
          65 67 45 68 46 69
          46 68 47 48 69 46
          70 50 47 71 70 47
          72 73 47 73 71 47
          68 74 47 74 72 47
          75 48 49 75 76 48
          69 48 76 53 75 49
          50 70 77 50 77 52
          51 78 54 52 77 51
          78 51 77 79 53 54
          55 53 67 75 53 79
          80 81 54 81 82 54
          80 54 78 54 82 79
          67 65 55 83 55 65
          55 83 56 83 57 56
          57 83 60 61 84 58
          62 58 84 59 85 86
          86 84 59 59 84 61
          60 85 59 83 85 60
          64 62 84 63 62 64
          84 66 64 85 83 65
          85 65 66 86 85 66
          84 86 66 68 69 87
          74 68 88 87 88 68
          76 87 69 70 71 77
          78 71 89 78 77 71
          73 89 71 73 72 90
          72 91 90 91 72 74
          73 90 92 73 92 89
          74 93 91 88 93 74
          76 75 79 94 95 76
          96 94 76 96 76 79
          87 76 95 89 97 78
          98 78 97 99 80 78
          100 99 78 101 100 78
          98 101 78 96 79 82
          99 81 80 102 103 81
          81 99 102 96 82 81
          104 81 103 96 81 104
          87 95 88 105 106 88
          93 88 106 88 95 105
          107 89 108 92 108 89
          97 89 107 91 109 90
          92 90 110 90 111 110
          109 111 90 109 91 93
          108 92 110 106 112 93
          112 109 93 94 113 114
          104 113 94 104 94 96
          94 114 115 94 115 95
          115 116 95 105 95 116
          97 107 117 118 98 97
          117 118 97 98 118 101
          100 119 99 102 99 119
          120 121 100 119 100 121
          120 100 101 101 122 120
          118 122 101 119 103 102
          103 113 104 119 114 103
          114 113 103 106 105 123
          105 124 123 105 116 124
          123 112 106 107 108 125
          117 107 125 110 125 108
          112 126 109 111 109 126
          126 127 110 126 110 111
          127 125 110 124 112 123
          112 124 126 119 115 114
          121 128 115 119 121 115
          115 128 129 126 115 129
          116 115 126 126 124 116
          130 122 117 118 117 122
          117 125 131 131 130 117
          120 122 130 121 120 130
          121 130 128 131 125 127
          126 129 127 127 129 131
          128 130 131 131 129 128
        </DataArray>
        <DataArray type="Int32" Name="offsets" format="ascii" RangeMin="3" RangeMax="780">
          3 6 9 12 15 18
          21 24 27 30 33 36
          39 42 45 48 51 54
          57 60 63 66 69 72
          75 78 81 84 87 90
          93 96 99 102 105 108
          111 114 117 120 123 126
          129 132 135 138 141 144
          147 150 153 156 159 162
          165 168 171 174 177 180
          183 186 189 192 195 198
          201 204 207 210 213 216
          219 222 225 228 231 234
          237 240 243 246 249 252
          255 258 261 264 267 270
          273 276 279 282 285 288
          291 294 297 300 303 306
          309 312 315 318 321 324
          327 330 333 336 339 342
          345 348 351 354 357 360
          363 366 369 372 375 378
          381 384 387 390 393 396
          399 402 405 408 411 414
          417 420 423 426 429 432
          435 438 441 444 447 450
          453 456 459 462 465 468
          471 474 477 480 483 486
          489 492 495 498 501 504
          507 510 513 516 519 522
          525 528 531 534 537 540
          543 546 549 552 555 558
          561 564 567 570 573 576
          579 582 585 588 591 594
          597 600 603 606 609 612
          615 618 621 624 627 630
          633 636 639 642 645 648
          651 654 657 660 663 666
          669 672 675 678 681 684
          687 690 693 696 699 702
          705 708 711 714 717 720
          723 726 729 732 735 738
          741 744 747 750 753 756
          759 762 765 768 771 774
          777 780
        </DataArray>
      </Polys>
    </Piece>
  </PolyData>
</VTKFile>
