<?xml version="1.0"?>
<VTKFile type="PolyData" version="0.1" byte_order="LittleEndian" header_type="UInt32" compressor="vtkZLibDataCompressor">
  <PolyData>
    <Piece NumberOfPoints="192" NumberOfVerts="0" NumberOfLines="0" NumberOfStrips="0" NumberOfPolys="200">
      <PointData Normals="Normals">
        <DataArray type="Float32" Name="Normals" NumberOfComponents="3" format="ascii" RangeMin="0.9999994349441508" RangeMax="1.0000006235649332">
          0.33235201239585876 0.9431549906730652 0.00036100001307204366 0.8643670082092285 0.5028499960899353 -0.0032289999071508646
          0.9733189940452576 0.04255500063300133 -0.22547399997711182 0.6984270215034485 0.3375760018825531 -0.6310639977455139
          0.7647579908370972 0.18432700634002686 -0.6173890233039856 0.9206119775772095 0.3336870074272156 -0.2027990072965622
          0.8258489966392517 0.5638779997825623 0.004000999964773655 0.9918460249900818 -0.10056799650192261 -0.07827500253915787
          0.5697969794273376 -0.8217840194702148 -0.0017640000442042947 0.38037601113319397 -0.9119099974632263 0.15405799448490143
          0.5523710250854492 -0.8162829875946045 0.16902099549770355 0.6168040037155151 -0.7699689865112305 0.16340400278568268
          0.7613940238952637 -0.6239500045776367 0.17596900463104248 0.9797199964523315 -0.03219800069928169 0.19776800274848938
          0.29827600717544556 0.9342010021209717 0.19570599496364594 -0.5491179823875427 -0.6310080289840698 0.5479949712753296
          0.01674400083720684 -0.8856170177459717 0.4641149938106537 0.9885479807853699 -0.15086300671100616 -0.003619000082835555
          0.996957004070282 -0.06487099826335907 0.0432250015437603 0.9582459926605225 -0.2848379909992218 0.02513599954545498
          0.3224000036716461 -0.9465889930725098 -0.005357999820262194 0.847681999206543 0.49258100986480713 -0.19697299599647522
          0.9432839751243591 -0.2594819962978363 -0.2070849984884262 0.9271289706230164 -0.36215099692344666 -0.09632699936628342
          0.8768370151519775 -0.48076000809669495 -0.005272999871522188 0.8201209902763367 -0.506496012210846 0.26620200276374817
          0.6756089925765991 -0.2280990034341812 0.7010869979858398 0.6232309937477112 -0.4083769917488098 0.6669420003890991
          0.5141429901123047 -0.8292930126190186 0.21893100440502167 0.6441649794578552 -0.7578759789466858 0.10332199931144714
          0.8043689727783203 -0.5927799940109253 0.04002600163221359 0.7574800252914429 -0.5878180265426636 -0.28406599164009094
          0.747160017490387 -0.4323810040950775 -0.5047760009765625 0.7129189968109131 -0.23234699666500092 -0.6616359949111938
          0.5820500254631042 -0.13731899857521057 -0.8014749884605408 -0.10631400346755981 -0.10793200135231018 -0.9884570240974426
          0.07028499990701675 -0.2985750138759613 -0.9517949819564819 0.220537006855011 -0.5281199812889099 -0.820032000541687
          0.3539299964904785 -0.6914479732513428 -0.6297879815101624 0.7505559921264648 -0.5045940279960632 -0.4266740083694458
          0.6168230175971985 0.718858003616333 0.32058098912239075 0.680823028087616 0.08155900239944458 0.7278929948806763
          0.5491170287132263 -0.20595799386501312 0.8099700212478638 0.400750994682312 -0.5230960249900818 0.7521759867668152
          0.11974799633026123 -0.8591859936714172 0.4974530041217804 0.10351599752902985 -0.6489369869232178 0.7537670135498047
          0.17126800119876862 -0.379487007856369 0.9092069864273071 0.1082020029425621 -0.7604449987411499 0.6403250098228455
          0.2860020101070404 -0.4817120134830475 0.8283460140228271 0.39471501111984253 -0.28279000520706177 0.8742020130157471
          0.4142740070819855 -0.6181570291519165 0.6680269837379456 0.44513601064682007 -0.7426300048828125 0.5003550052642822
          0.3773390054702759 -0.9152629971504211 0.14109699428081512 0.6261669993400574 -0.7372620105743408 0.25369301438331604
          0.406360000371933 0.7804719805717468 0.4751160144805908 0.41304200887680054 0.6666060090065002 0.6205099821090698
          -0.07808200269937515 -0.7924309968948364 0.6049429774284363 -0.12496799975633621 -0.7888720035552979 0.601718008518219
          0.39973899722099304 -0.6048910021781921 0.6887059807777405 0.08842000365257263 0.9473490118980408 0.30775099992752075
          -0.3808690011501312 0.5890589952468872 0.7127050161361694 -0.4119639992713928 0.39392000436782837 0.8216530084609985
          -0.5332880020141602 0.0813789963722229 0.8420100212097168 -0.6667870283126831 -0.2842400074005127 0.6889140009880066
          -0.44111600518226624 0.030634000897407532 0.896926999092102 -0.2998020052909851 0.07490400224924088 0.9510560035705566
          -0.48822999000549316 -0.4340919852256775 0.7570970058441162 -0.35742899775505066 -0.18438099324703217 0.9155589938163757
          -0.2002909928560257 0.028188999742269516 0.9793310165405273 -0.3415910005569458 -0.2729870080947876 0.8993300199508667
          -0.3292520046234131 -0.3755260109901428 0.8663570284843445 -0.1781419962644577 -0.5783630013465881 0.7960910201072693
          -0.00519500020891428 -0.38931798934936523 0.9210889935493469 0.1026730015873909 0.30788901448249817 0.9458659887313843
          -0.007942999713122845 0.34098300337791443 0.9400359988212585 -0.17961399257183075 -0.5190340280532837 0.8356689810752869
          -0.14743800461292267 -0.6018660068511963 0.7848690152168274 -0.07376900315284729 -0.3418619930744171 0.9368500113487244
          -0.2216150015592575 0.9543449878692627 -0.20028400421142578 -0.8164629936218262 0.5216730237007141 -0.24747900664806366
          -0.7296950221061707 0.683650016784668 -0.012928999960422516 -0.7754979729652405 0.6227710247039795 0.10373000055551529
          -0.8891159892082214 0.4289639890193939 0.15956899523735046 -0.47347500920295715 0.7671430110931396 0.43279701471328735
          -0.49909400939941406 0.638384997844696 0.5859779715538025 -0.8500970005989075 -0.010917999781668186 0.5265139937400818
          -0.7600359916687012 0.1397700011730194 0.634672999382019 -0.5450040102005005 0.3702720105648041 0.7522429823875427
          -0.7643700242042542 -0.11033199727535248 0.635267972946167 -0.6817839741706848 -0.1124430000782013 0.7228599786758423
          -0.2754090130329132 0.11725299805402756 0.9541500210762024 -0.2705880105495453 -0.19481800496578217 0.9427769780158997
          -0.5032780170440674 -0.15311899781227112 0.8504499793052673 -0.5277569890022278 0.1310579925775528 0.8392230272293091
          -0.4111590087413788 -0.3901430070400238 0.8238549828529358 -0.31831100583076477 -0.4507330060005188 0.8339769840240479
          -0.2899009883403778 -0.28357499837875366 0.914080023765564 -0.3180620074272156 0.9480360150337219 0.008071999996900558
          -0.8821489810943604 0.4708090126514435 0.012304999865591526 -0.7501130104064941 0.6531339883804321 0.10367000102996826
          -0.7788950204849243 0.620212972164154 0.09305000305175781 -0.8768969774246216 0.4802989959716797 0.019114000722765923
          -0.588142991065979 0.8086879849433899 0.010580999776721 -0.6802170276641846 0.7328370213508606 0.015935000032186508
          -0.9965329766273499 0.07144200056791306 0.04263399913907051 -0.9658769965171814 0.25725701451301575 0.029996000230312347
          -0.8481249809265137 0.5286170244216919 0.03531400114297867 -0.9992600083351135 -0.019764000549912453 -0.03298500180244446
          -0.9997950196266174 -0.016749000176787376 -0.011376000009477139 -0.9390220046043396 0.3344759941101074 0.0797709971666336
          -0.9924910068511963 -0.08473099768161774 -0.08821099996566772 -0.9970750212669373 -0.028903000056743622 -0.07075200229883194
          -0.9475060105323792 0.31932100653648376 0.01633800007402897 -0.8717769980430603 -0.4870760142803192 0.05255499854683876
          -0.7792369723320007 -0.6257539987564087 0.034961000084877014 -0.9097239971160889 -0.41494300961494446 -0.01495600026100874
          -0.26767799258232117 0.938975989818573 0.21603800356388092 -0.7831730246543884 0.5685539841651917 0.25176799297332764
          -0.8442559838294983 0.5242379903793335 0.11138399690389633 -0.9325680136680603 0.3609200119972229 0.007280000019818544
          -0.998540997505188 0.0323529988527298 -0.04322199895977974 -0.8827599883079529 0.2638140022754669 -0.3887630105018616
          -0.7770479917526245 0.31352800130844116 -0.5457990169525146 -0.8826590180397034 -0.21646900475025177 -0.4171980023384094
          -0.7969880104064941 0.05489899963140488 -0.6014950275421143 -0.6516249775886536 0.24367600679397583 -0.7183369994163513
          -0.7684379816055298 -0.09939400106668472 -0.6321589946746826 -0.7891790270805359 -0.19573399424552917 -0.5821380019187927
          -0.7132019996643066 -0.3878589868545532 -0.583873987197876 -0.48594900965690613 -0.3193820118904114 -0.8135409951210022
          -0.307761013507843 0.4913269877433777 -0.8147889971733093 -0.4339349865913391 0.5648040175437927 -0.7019240260124207
          -0.3666140139102936 -0.5080249905586243 -0.7794259786605835 -0.21074500679969788 -0.6341519951820374 -0.7439339756965637
          -0.26124098896980286 -0.35747700929641724 -0.8966400027275085 0.07334700226783752 0.9479990005493164 -0.30970698595046997
          -0.38242200016975403 0.60378098487854 -0.699429988861084 -0.504148006439209 0.3141930103302002 -0.8044360280036926
          -0.6165450215339661 -0.029416000470519066 -0.7867699861526489 -0.6413220167160034 -0.5361520051956177 -0.5488590002059937
          -0.5307350158691406 -0.3817859888076782 -0.756676971912384 -0.4139840006828308 -0.09748300164937973 -0.9050490260124207
          -0.5138030052185059 -0.4989440143108368 -0.6978979706764221 -0.38414400815963745 -0.21206699311733246 -0.8985880017280579
          -0.2543199956417084 -0.020780999213457108 -0.9668970108032227 -0.350629985332489 -0.27558499574661255 -0.8950480222702026
          -0.4251070022583008 -0.44503700733184814 -0.7881789803504944 -0.4439930021762848 -0.7780879735946655 -0.44435301423072815
          -0.16385500133037567 -0.5446959733963013 -0.8224700093269348 0.32544198632240295 0.6392189860343933 -0.6967689990997314
          0.14091600477695465 0.6527720093727112 -0.744333028793335 -0.17315399646759033 -0.5665969848632812 -0.8055959939956665
          -0.10934600234031677 -0.6911299824714661 -0.7144110202789307 -0.06467100232839584 -0.37872999906539917 -0.9232450127601624
          0.6140249967575073 0.7181450128555298 -0.32747700810432434 0.6659380197525024 0.1700509935617447 -0.7263669967651367
          0.549589991569519 -0.029961999505758286 -0.834896981716156 0.4291979968547821 -0.27798300981521606 -0.8593689799308777
          0.20142300426959991 -0.36556899547576904 -0.9087290167808533 0.0822950005531311 -0.06545499712228775 -0.9944559931755066
          0.1256359964609146 -0.19821900129318237 -0.9720720052719116 0.07033699750900269 -0.7829200029373169 -0.618133008480072
          0.25016799569129944 -0.8103110194206238 -0.5299170017242432 0.38690900802612305 -0.6382489800453186 -0.6655380129814148
          0.32246899604797363 -0.8059530258178711 -0.49643999338150024 0.3052240014076233 -0.9054489731788635 -0.2949579954147339
          0.18885500729084015 -0.9814500212669373 0.03301199898123741 0.488442987203598 -0.8623610138893127 -0.13325299322605133
          0.8221219778060913 0.49302399158477783 -0.2846809923648834 0.8158479928970337 0.4321169853210449 -0.38427600264549255
          0.5068320035934448 -0.7527239918708801 -0.4201529920101166 0.45144400000572205 -0.7752060294151306 -0.44187501072883606
          0.46536800265312195 -0.5540120005607605 -0.6902920007705688 0.84197598695755 0.5069800019264221 0.18452100455760956
          0.9891089797019958 0.14697299897670746 0.007937000133097172 0.7235519886016846 0.4331839978694916 -0.5374230146408081
          0.6663950085639954 0.24590900540351868 -0.7038800120353699 0.6666859984397888 0.3371039927005768 -0.664749026298523
          0.4286159873008728 0.4848859906196594 -0.7623469829559326 0.5466300249099731 0.002247000113129616 -0.8373709917068481
          0.5008180141448975 -0.8453739881515503 -0.18580499291419983 0.3222399950027466 -0.8895289897918701 0.3238829970359802
          0.45717599987983704 -0.8087970018386841 0.36991599202156067 0.42078500986099243 -0.6853960156440735 0.5942829847335815
          0.38509100675582886 -0.5277339816093445 0.7571009993553162 0.36709898710250854 -0.3739889860153198 0.8516870141029358
          0.3607940077781677 -0.25175100564956665 0.8980249762535095 0.5682240128517151 0.10076899826526642 0.8166810274124146
          0.6970400214195251 0.07578500360250473 0.7130159735679626 0.647255003452301 -0.31463998556137085 0.6943070292472839
          0.741927981376648 -0.260235995054245 0.6179159879684448 0.8041449785232544 -0.3339509963989258 0.4917590022087097
          <InformationKey name="L2_NORM_RANGE" location="vtkDataArray" length="2">
            <Value index="0">
              0.99999943494
            </Value>
            <Value index="1">
              1.0000006236
            </Value>
          </InformationKey>
        </DataArray>
      </PointData>
      <CellData>
      </CellData>
      <Points>
        <DataArray type="Float32" Name="Points" NumberOfComponents="3" format="ascii" RangeMin="0.08290420928858365" RangeMax="0.17972053235159816">
          -0.10526599735021591 0.07356700301170349 0 -0.10106000304222107 0.07140599936246872 -0.000037999998312443495
          -0.10311000049114227 0.06280100345611572 -0.00005500000042957254 -0.09928800165653229 0.05986599996685982 -0.0000940000027185306
          -0.09488099813461304 0.06195300072431564 -0.00011800000356743112 -0.0906749963760376 0.05561500042676926 -0.00017100000695791095
          -0.07826100289821625 0.04132800176739693 -0.00031400000443682075 -0.07351099699735641 0.038329001516103745 -0.0003589999978430569
          -0.0752440020442009 0.03485500067472458 -0.0003589999978430569 -0.08933000266551971 0.033271998167037964 -0.00026199998683296144
          -0.1053680032491684 0.029386000707745552 -0.00015999999595806003 -0.11516699939966202 0.024836000055074692 -0.0001049999991664663
          -0.12707599997520447 0.023767000064253807 -0.000022000000171829015 -0.13971899449825287 0.014798999764025211 0.000037999998312443495
          -0.15027999877929688 0.008082999847829342 0.00009000000136438757 -0.1608320027589798 -0.007602999918162823 0.00011000000085914508
          -0.15968799591064453 -0.013013999909162521 0.00008199999865610152 -0.1624639928340912 -0.02178799919784069 0.00007000000186963007
          -0.16122600436210632 -0.028937000781297684 0.000035000000934815034 -0.1598140001296997 -0.03445500135421753 0.000003999999989900971
          -0.16306999325752258 -0.04226300120353699 0 -0.08750200271606445 0.065932996571064 0.014170000329613686
          -0.08850599825382233 0.0596110001206398 0.015581999905407429 -0.08963599801063538 0.05055899918079376 0.017808999866247177
          -0.09115400165319443 0.045295000076293945 0.018535999581217766 -0.09305000305175781 0.039799001067876816 0.019092999398708344
          -0.09173200279474258 0.0327720008790493 0.022260000929236412 -0.09216800332069397 0.027459999546408653 0.023715000599622726
          -0.09579300135374069 0.023202000185847282 0.022731000557541847 -0.10498300194740295 0.021112000569701195 0.0173799991607666
          -0.11289200186729431 0.014794999733567238 0.014255000278353691 -0.12130200117826462 0.008911999873816967 0.010658999904990196
          -0.12942799925804138 0.004383999854326248 0.006806999910622835 -0.13816499710083008 -0.0013680000556632876 0.0029539999086409807
          -0.14594900608062744 -0.004951999988406897 -0.0009850000496953726 -0.15239299833774567 -0.01603499986231327 -0.0015839999541640282
          -0.14974099397659302 -0.01973400078713894 0.0013699999544769526 -0.15194199979305267 -0.025186000391840935 0.001711999997496605
          -0.15447600185871124 -0.028568999841809273 0.001155999954789877 -0.15627799928188324 -0.03348600119352341 0.0015839999541640282
          -0.0928800031542778 0.06810399889945984 0.04162999987602234 -0.09374900162220001 0.0644339993596077 0.04428499937057495
          -0.10026899725198746 0.04943900182843208 0.04693799838423729 -0.10692399740219116 0.03650699928402901 0.046379998326301575
          -0.11159300059080124 0.03050599992275238 0.041770000010728836 -0.1151600033044815 0.028234999626874924 0.035064999014139175
          -0.11948200315237045 0.020083000883460045 0.034366000443696976 -0.1234700009226799 0.014426999725401402 0.03115300089120865
          -0.1270419955253601 0.01153900008648634 0.025286000221967697 -0.13000600039958954 0.004075999837368727 0.02738099917769432
          -0.13574199378490448 -0.0036589999217540026 0.02221200056374073 -0.14058999717235565 -0.01144499983638525 0.019557999446988106
          -0.14409899711608887 -0.014511000365018845 0.014109999872744083 -0.14711199700832367 -0.015769999474287033 0.007542999926954508
          -0.15006600320339203 -0.021998999640345573 0.007961999624967575 -0.14829599857330322 -0.02302199974656105 0.01425000000745058
          -0.14953599870204926 -0.02530599944293499 0.013969999738037586 -0.1522500067949295 -0.026374999433755875 0.007961999624967575
          -0.15556000173091888 -0.03137899935245514 0.005727000068873167 -0.11743800342082977 0.078015998005867 0.04184500128030777
          -0.11987300217151642 0.07497800141572952 0.044514000415802 -0.12795700132846832 0.060614001005887985 0.047182001173496246
          -0.13428300619125366 0.047550998628139496 0.046620000153779984 -0.13623100519180298 0.040449999272823334 0.041985999792814255
          -0.13584500551223755 0.036584001034498215 0.035245999693870544 -0.13975299894809723 0.02826699987053871 0.0345430001616478
          -0.14184799790382385 0.02184399962425232 0.031314000487327576 -0.14195799827575684 0.01755799911916256 0.02541700005531311
          -0.14615799486637115 0.010595000348985195 0.027521999552845955 -0.14884500205516815 0.0016289999475702643 0.02232700027525425
          -0.15212799608707428 -0.006787000223994255 0.019658999517560005 -0.1524219959974289 -0.01115300040692091 0.014182000420987606
          -0.15156100690364838 -0.01397399976849556 0.007583000231534243 -0.15476499497890472 -0.020103000104427338 0.008004000410437584
          -0.156700998544693 -0.01962899975478649 0.014322999864816666 -0.15777699649333954 -0.02197900041937828 0.014042000286281109
          -0.1569480001926422 -0.024477999657392502 0.008004000410437584 -0.15893900394439697 -0.030014999210834503 0.005756999831646681
          -0.12411999702453613 0.07993999868631363 0.014964000321924686 -0.1288670003414154 0.075593002140522 0.016713999211788177
          -0.13387799263000488 0.06516800075769424 0.016581999137997627 -0.14324000477790833 0.05673300102353096 0.020083000883460045
          -0.1442749947309494 0.04910900071263313 0.018201999366283417 -0.14754900336265564 0.04254499822854996 0.018201999366283417
          -0.15366800129413605 0.0371289998292923 0.020521000027656555 -0.15552900731563568 0.031463999301195145 0.019864000380039215
          -0.15391699969768524 0.026559999212622643 0.017108000814914703 -0.16037499904632568 0.019812999293208122 0.019207000732421875
          -0.16150599718093872 0.012382999993860722 0.017457999289035797 -0.16187700629234314 0.0055740000680089 0.015401000156998634
          -0.16251599788665771 0.00003400000059627928 0.013957000337541103 -0.1642249971628189 -0.00584599981084466 0.013125999830663204
          -0.16422000527381897 -0.012032999657094479 0.011025999672710896 -0.16735899448394775 -0.015869999304413795 0.011857000179588795
          -0.16929499804973602 -0.02220200002193451 0.011025999672710896 -0.16413499414920807 -0.026062000542879105 0.006213000044226646
          -0.16530899703502655 -0.03293300047516823 0.004681999795138836 -0.11196800321340561 0.07426200062036514 0.000050999999075429514
          -0.11829999834299088 0.06831300258636475 0.00007500000356230885 -0.11838600039482117 0.061080001294612885 0.00004999999873689376
          -0.1332470029592514 0.05826599895954132 0.00014800000644754618 -0.13531799614429474 0.050905000418424606 0.00013699999544769526
          -0.14672799408435822 0.0434500016272068 0.00019200000679120421 -0.1569029986858368 0.04168200120329857 0.0002610000083222985
          -0.16028200089931488 0.03748000040650368 0.0002699999895412475 -0.15921500325202942 0.0328730009496212 0.0002460000105202198
          -0.1677899956703186 0.026283999904990196 0.0002840000088326633 -0.16976700723171234 0.021361999213695526 0.0002809999859891832
          -0.1677670031785965 0.016378000378608704 0.0002479999966453761 -0.17152300477027893 0.0107829999178648 0.00025400001322850585
          -0.1796880066394806 0.003407000098377466 0.00028700000257231295 -0.17494100332260132 -0.0034549999982118607 0.00022699999681208283
          -0.17558600008487701 -0.013089999556541443 0.00019799999427050352 -0.1780710071325302 -0.02352900058031082 0.00017800000205170363
          -0.1697160005569458 -0.028294000774621964 0.00009999999747378752 -0.17065100371837616 -0.03626500070095062 0.00007699999696342275
          -0.12433300167322159 0.08002600073814392 -0.014642000198364258 -0.12910500168800354 0.07568900287151337 -0.016352999955415726
          -0.13411200046539307 0.06526300311088562 -0.016225000843405724 -0.14352500438690186 0.05684699863195419 -0.019649000838398933
          -0.1445309966802597 0.04921500012278557 -0.017808999866247177 -0.1478080004453659 0.042649999260902405 -0.017808999866247177
          -0.15395799279212952 0.03724699839949608 -0.02007799968123436 -0.15580999851226807 0.03157699853181839 -0.019435999915003777
          -0.15415899455547333 0.02665800042450428 -0.01673799939453602 -0.16064800322055817 0.019923999905586243 -0.018794000148773193
          -0.16175399720668793 0.012482999823987484 -0.01708099991083145 -0.16209399700164795 0.005663000047206879 -0.01506900042295456
          -0.16271300613880157 0.0001140000022132881 -0.013655999675393105 -0.1644120067358017 -0.005770999938249588 -0.012842000462114811
          -0.16437600553035736 -0.011970999650657177 -0.01078800018876791 -0.1675270050764084 -0.01580199971795082 -0.011602000333368778
          -0.1694519966840744 -0.02213899977505207 -0.01078800018876791 -0.16422300040721893 -0.02602599933743477 -0.0060789999552071095
          -0.1653739959001541 -0.032905999571084976 -0.004579999949783087 -0.11803700029850006 0.07825800031423569 -0.04162999987602234
          -0.12050999701023102 0.07523500174283981 -0.04428499937057495 -0.1286340057849884 0.06088799983263016 -0.04693799838423729
          -0.13495199382305145 0.04782000184059143 -0.046379998326301575 -0.13683399558067322 0.04069500043988228 -0.041770000010728836
          -0.13634899258613586 0.03678800165653229 -0.035064999014139175 -0.14024899899959564 0.0284659992903471 -0.034366000443696976
          -0.14229600131511688 0.02202400006353855 -0.03115300089120865 -0.14232200384140015 0.017704999074339867 -0.025286000221967697
          -0.14655199646949768 0.010754000395536423 -0.02738099917769432 -0.14916500449180603 0.0017579999985173345 -0.022211000323295593
          -0.15240900218486786 -0.006674000062048435 -0.019557999446988106 -0.15262599289417267 -0.011070000007748604 -0.014109999872744083
          -0.1516689956188202 -0.013930000364780426 -0.007542999926954508 -0.15487800538539886 -0.020055999979376793 -0.007961999624967575
          -0.15690700709819794 -0.019547000527381897 -0.01425000000745058 -0.15797799825668335 -0.021900000050663948 -0.013969999738037586
          -0.15706199407577515 -0.02443300001323223 -0.007961999624967575 -0.15902000665664673 -0.029982000589370728 -0.005727000068873167
          -0.09347900003194809 0.06834600120782852 -0.04184500128030777 -0.09438599646091461 0.064690001308918 -0.044514000415802
          -0.10094399750232697 0.04971100017428398 -0.047182001173496246 -0.10759200155735016 0.03677700087428093 -0.046620000153779984
          -0.11219300329685211 0.030748000368475914 -0.041985999792814255 -0.11566399782896042 0.028440000489354134 -0.035245999693870544
          -0.11997699737548828 0.020284000784158707 -0.03454200178384781 -0.1239200010895729 0.014607000164687634 -0.031314000487327576
          -0.12740400433540344 0.011686000041663647 -0.02541700005531311 -0.13040000200271606 0.004234999883919954 -0.027521999552845955
          -0.13606199622154236 -0.003530000103637576 -0.02232700027525425 -0.14087200164794922 -0.011331000365316868 -0.019658999517560005
          -0.14430099725723267 -0.014430999755859375 -0.014182000420987606 -0.14722000062465668 -0.0157260000705719 -0.007583000231534243
          -0.15018199384212494 -0.021952999755740166 -0.008004000410437584 -0.14850200712680817 -0.022940000519156456 -0.014322999864816666
          -0.14973799884319305 -0.025225000455975533 -0.014042000286281109 -0.15236400067806244 -0.02632799930870533 -0.008004000410437584
          -0.15564100444316864 -0.03134499862790108 -0.005756999831646681 -0.0877079963684082 0.06601600348949432 -0.014481999911367893
          -0.08873199671506882 0.059703998267650604 -0.015925999730825424 -0.08989500254392624 0.050661999732255936 -0.018201999366283417
          -0.09142299741506577 0.045402999967336655 -0.0189449992030859 -0.09332700073719025 0.039910998195409775 -0.019514000043272972
          -0.09205500036478043 0.032903000712394714 -0.02275099977850914 -0.09251300245523453 0.027598999440670013 -0.02423899993300438
          -0.09612199664115906 0.023334000259637833 -0.02323400042951107 -0.10523500293493271 0.02121400088071823 -0.017765000462532043
          -0.11309800297021866 0.014879000373184681 -0.014569999650120735 -0.12145599722862244 0.008973999880254269 -0.010893999598920345
          -0.1295280009508133 0.004424000158905983 -0.006957000121474266 -0.13820800185203552 -0.0013500000350177288 -0.0030189999379217625
          -0.14593499898910522 -0.00495699979364872 0.0010059999767690897 -0.15237000584602356 -0.01604500040411949 0.0016189999878406525
          -0.14975999295711517 -0.019726000726222992 -0.00139999995008111 -0.15196600556373596 -0.025174999609589577 -0.0017500000540167093
          -0.15449300408363342 -0.028560999780893326 -0.0011820000363513827 -0.15630100667476654 -0.03347599878907204 -0.0016189999878406525
          <InformationKey name="L2_NORM_RANGE" location="vtkDataArray" length="2">
            <Value index="0">
              0.082904209289
            </Value>
            <Value index="1">
              0.17972053235
            </Value>
          </InformationKey>
        </DataArray>
      </Points>
      <Verts>
        <DataArray type="Int64" Name="connectivity" format="ascii" RangeMin="1e+299" RangeMax="-1e+299">
        </DataArray>
        <DataArray type="Int64" Name="offsets" format="ascii" RangeMin="1e+299" RangeMax="-1e+299">
        </DataArray>
      </Verts>
      <Lines>
        <DataArray type="Int64" Name="connectivity" format="ascii" RangeMin="1e+299" RangeMax="-1e+299">
        </DataArray>
        <DataArray type="Int64" Name="offsets" format="ascii" RangeMin="1e+299" RangeMax="-1e+299">
        </DataArray>
      </Lines>
      <Strips>
        <DataArray type="Int64" Name="connectivity" format="ascii" RangeMin="1e+299" RangeMax="-1e+299">
        </DataArray>
        <DataArray type="Int64" Name="offsets" format="ascii" RangeMin="1e+299" RangeMax="-1e+299">
        </DataArray>
      </Strips>
      <Polys>
        <DataArray type="Int32" Name="connectivity" format="ascii" RangeMin="0" RangeMax="191">
          21 1 0 21 22 2
          1 22 23 3 2 23
          24 4 3 24 25 5
          4 25 26 6 5 26
          27 7 6 27 28 8
          7 28 29 9 8 29
          30 10 9 30 31 11
          10 31 32 12 11 32
          33 13 12 33 34 14
          13 34 35 15 14 35
          36 16 15 36 37 17
          16 37 38 18 17 38
          39 19 18 39 20 19
          40 21 0 40 41 22
          21 41 42 23 22 42
          43 24 23 43 44 25
          24 44 45 26 25 45
          46 27 26 46 47 28
          27 47 48 29 28 48
          49 30 29 49 50 31
          30 50 51 32 31 51
          52 33 32 52 53 34
          33 53 54 35 34 54
          55 36 35 55 56 37
          36 56 57 38 37 57
          58 39 38 58 20 39
          59 40 0 59 60 41
          40 60 61 42 41 61
          62 43 42 62 63 44
          43 63 64 45 44 64
          65 46 45 65 66 47
          46 66 67 48 47 67
          68 49 48 68 69 50
          49 69 70 51 50 70
          71 52 51 71 72 53
          52 72 73 54 53 73
          74 55 54 74 75 56
          55 75 76 57 56 76
          77 58 57 77 20 58
          78 59 0 78 79 60
          59 79 80 61 60 80
          81 62 61 81 82 63
          62 82 83 64 63 83
          84 65 64 84 85 66
          65 85 86 67 66 86
          87 68 67 87 88 69
          68 88 89 70 69 89
          90 71 70 90 91 72
          71 91 92 73 72 92
          93 74 73 93 94 75
          74 94 95 76 75 95
          96 77 76 96 20 77
          97 78 0 97 98 79
          78 98 99 80 79 99
          100 81 80 100 101 82
          81 101 102 83 82 102
          103 84 83 103 104 85
          84 104 105 86 85 105
          106 87 86 106 107 88
          87 107 108 89 88 108
          109 90 89 109 110 91
          90 110 111 92 91 111
          112 93 92 112 113 94
          93 113 114 95 94 114
          115 96 95 115 20 96
          116 97 0 116 117 98
          97 117 118 99 98 118
          119 100 99 119 120 101
          100 120 121 102 101 121
          122 103 102 122 123 104
          103 123 124 105 104 124
          125 106 105 125 126 107
          106 126 127 108 107 127
          128 109 108 128 129 110
          109 129 130 111 110 130
          131 112 111 131 132 113
          112 132 133 114 113 133
          134 115 114 134 20 115
          135 116 0 135 136 117
          116 136 137 118 117 137