<?xml version="1.0"?>
<VTKFile type="PolyData" version="0.1" byte_order="LittleEndian" header_type="UInt32" compressor="vtkZLibDataCompressor">
  <PolyData>
    <Piece NumberOfPoints="798" NumberOfVerts="0" NumberOfLines="0" NumberOfStrips="0" NumberOfPolys="1595">
      <PointData Normals="Normals">
        <DataArray type="Float32" Name="Normals" NumberOfComponents="3" format="ascii" RangeMin="0.9999992505279278" RangeMax="1.0000007491869196">
          -0.2626419961452484 0.4971790015697479 -0.8269420266151428 -0.51323002576828 0.42638498544692993 -0.7448430061340332
          -0.5139660239219666 0.5851389765739441 -0.6272569894790649 0.03518500179052353 0.05491799861192703 -0.9978709816932678
          -0.19506700336933136 0.1552329957485199 -0.9684270024299622 -0.24511200189590454 0.697708010673523 -0.6731439828872681
          0.11811699718236923 0.18078899383544922 -0.976402997970581 -0.6828910112380981 0.5279139876365662 -0.504941999912262
          -0.3664180040359497 0.05333099886775017 -0.9289209842681885 -0.7358139753341675 0.30804601311683655 -0.6030629873275757
          -0.4837830066680908 0.761696994304657 -0.43101298809051514 0.297232985496521 -0.2503800094127655 -0.921392023563385
          0.17240600287914276 -0.36307400465011597 -0.9156709909439087 0.20251600444316864 0.2168480008840561 -0.9549679756164551
          -0.0664450004696846 0.8487449884414673 -0.5246120095252991 -0.210998997092247 0.9307489991188049 -0.29864099621772766
          0.4122669994831085 -0.25394999980926514 -0.8749539852142334 -0.9049559831619263 0.3284260034561157 -0.2705399990081787
          -0.9133660197257996 0.4065229892730713 -0.022399000823497772 -0.32457900047302246 -0.03734000027179718 -0.9451209902763367
          0.08357899636030197 -0.20572000741958618 -0.9750350117683411 -0.8393239974975586 0.3756130039691925 -0.3930020034313202
          -0.7928280234336853 0.6093519926071167 0.010699000209569931 -0.623399019241333 0.7741619944572449 0.10976000130176544
          0.4125550091266632 -0.3541319966316223 -0.8392789959907532 0.2832149863243103 -0.6820840239524841 -0.6742029786109924
          0.2555519938468933 -0.6051549911499023 -0.7539759874343872 0.34025099873542786 -0.5657179951667786 -0.7511270046234131
          0.0834759995341301 -0.36251500248908997 -0.9282320141792297 0.4445889890193939 -0.25805899500846863 -0.8577569723129272
          0.2789439857006073 0.2713100016117096 -0.9211840033531189 0.07150900363922119 0.7460790276527405 -0.6620069742202759
          0.1796710044145584 0.9390140175819397 -0.2932080030441284 -0.10497599840164185 0.9731569886207581 -0.20480400323867798
          -0.0638279989361763 0.991998016834259 -0.10892900079488754 -0.43140101432800293 0.8970460295677185 0.09592500329017639
          -0.29969099164009094 0.9427210092544556 0.14649799466133118 0.4908050000667572 -0.3781610131263733 -0.7849230170249939
          -0.9586210250854492 0.2840610146522522 -0.018820999190211296 -0.8919540047645569 0.4264970123767853 0.15005700290203094
          -0.9527860283851624 0.29634401202201843 0.06616800278425217 -0.9202029705047607 0.356671005487442 0.16128000617027283
          0.012492000125348568 -0.4075799882411957 -0.9130839705467224 0.11015100032091141 -0.4297269880771637 -0.89621502161026
          -0.455036997795105 0.06610400229692459 -0.8880149722099304 -0.8134300112724304 0.37934499979019165 -0.4409410059452057
          -0.7214260101318359 0.35248100757598877 -0.5960720181465149 -0.806738018989563 0.5765889883041382 0.12930400669574738
          -0.8356519937515259 0.47910699248313904 0.26859399676322937 -0.7720940113067627 0.6088539958000183 0.18212099373340607
          -0.5545740127563477 0.7693399786949158 0.31711700558662415 -0.6434959769248962 0.7148860096931458 0.27358999848365784
          0.5088260173797607 -0.5357540249824524 -0.6738420128822327 0.33323198556900024 -0.7238699793815613 -0.6041269898414612
          0.48749101161956787 -0.6942600011825562 -0.5294860005378723 0.4401009976863861 -0.7319920063018799 -0.5200949907302856
          0.4003170132637024 -0.5699769854545593 -0.7175459861755371 0.13086499273777008 -0.5151399970054626 -0.847055971622467
          0.390175998210907 -0.6951500177383423 -0.6037619709968567 0.10824699699878693 -0.48217299580574036 -0.869363009929657
          0.13856500387191772 -0.4922559857368469 -0.8593509793281555 0.4496859908103943 -0.21626000106334686 -0.8666110038757324
          0.4348520040512085 0.4254469871520996 -0.7936620116233826 0.2671259939670563 0.8386170268058777 -0.47472700476646423
          0.08518200367689133 0.9957320094108582 -0.03553299978375435 0.23300300538539886 0.9544829726219177 -0.18620100617408752
          0.5544739961624146 0.6581069827079773 -0.509365975856781 -0.42812299728393555 0.8236600160598755 0.3718799948692322
          -0.31396499276161194 0.868736982345581 0.38304299116134644 -0.08117000013589859 0.9823619723320007 0.16845299303531647
          -0.5488539934158325 0.7411929965019226 0.38651201128959656 0.4610399901866913 -0.3962259888648987 -0.7940070033073425
          0.4788939952850342 -0.6033049821853638 -0.6377170085906982 0.5370190143585205 -0.5999959707260132 -0.5929710268974304
          -0.9289519786834717 0.3673839867115021 -0.045577000826597214 -0.8239610195159912 0.5666149854660034 0.005956999957561493
          -0.9132130146026611 0.4067789912223816 0.02392599917948246 -0.8804550170898438 0.4704740047454834 0.05875999853014946
          -0.26361000537872314 0.05354499816894531 -0.9631419777870178 -0.7263669967651367 0.4078010022640228 -0.5532529950141907
          -0.7840970158576965 0.45217201113700867 -0.42512598633766174 -0.8243809938430786 0.5412870049476624 -0.16554099321365356
          -0.7789610028266907 0.6245070099830627 -0.056664999574422836 -0.7960360050201416 0.6022830009460449 -0.0598520003259182
          -0.593451976776123 0.8013020157814026 0.07569500058889389 -0.21650399267673492 0.8792110085487366 0.4243989884853363
          0.17378200590610504 0.6501150131225586 0.7396960258483887 0.5068100094795227 -0.654013991355896 -0.5616130232810974
          0.5355049967765808 -0.746770977973938 -0.39441999793052673 0.5292789936065674 -0.7222750186920166 -0.44517800211906433
          0.4914860129356384 -0.8199440240859985 -0.2934829890727997 0.5329830050468445 -0.688044011592865 -0.492467999458313
          0.5731819868087769 -0.7284299731254578 -0.3753019869327545 0.448870986700058 -0.5121210217475891 -0.7322890162467957
          0.4628579914569855 -0.5447949767112732 -0.6992570161819458 0.5730990171432495 -0.555076003074646 -0.602865993976593
          0.49763599038124084 -0.5224469900131226 -0.6923930048942566 0.6341559886932373 0.36424800753593445 -0.6820330023765564
          0.4557879865169525 -0.3997569978237152 -0.7952679991722107 0.5992310047149658 -0.006426999811083078 -0.8005499839782715
          0.11240799725055695 0.9876890182495117 -0.10878700017929077 0.10793100297451019 0.9882100224494934 -0.10858599841594696
          0.12611399590969086 0.9895200133323669 -0.07032100111246109 0.2897599935531616 0.9118009805679321 -0.29096099734306335
          0.67010897397995 0.21925799548625946 -0.7091400027275085 0.524370014667511 0.5317180156707764 -0.6650660037994385
          -0.16993999481201172 0.6903280019760132 0.7032549977302551 -0.402415007352829 0.8276079893112183 0.39131399989128113
          -0.18513800203800201 0.8513219952583313 0.4908910095691681 -0.09737200289964676 0.95449298620224 0.2818889915943146
          -0.23010100424289703 0.8522030115127563 0.469897985458374 -0.18341800570487976 0.8624560236930847 0.47172901034355164
          0.5056620240211487 -0.6863800287246704 -0.522674024105072 0.448758989572525 -0.7110289931297302 -0.5413439869880676
          0.4556550085544586 -0.6288769841194153 -0.6299930214881897 0.4142409861087799 -0.7386549711227417 -0.5317829847335815
          -0.8429830074310303 0.5251460075378418 -0.11662299931049347 -0.8443059921264648 0.5291919708251953 -0.08428599685430527
          -0.3834550082683563 0.9170420169830322 0.10952900350093842 -0.6873319745063782 0.707198977470398 -0.16566500067710876
          -0.8149070143699646 0.5701429843902588 -0.10422799736261368 -0.7357069849967957 0.6741920113563538 -0.0648069977760315
          -0.8417530059814453 0.5234060287475586 -0.1322840005159378 -0.6675919890403748 0.7414939999580383 0.06713200360536575
          -0.4597260057926178 0.8713459968566895 0.17148800194263458 -0.719211995601654 0.6911609768867493 -0.07092700153589249
          -0.5151609778404236 0.8253009915351868 0.23127399384975433 0.3732619881629944 0.7488499879837036 0.5476300120353699
          0.1117980033159256 0.4876739978790283 0.8658379912376404 0.032648999243974686 0.6519730091094971 0.7575389742851257
          -0.30211299657821655 0.788640022277832 0.5355139970779419 0.6920599937438965 0.25005900859832764 0.6771429777145386
          0.5575900077819824 -0.04278099909424782 0.8290129899978638 0.09877800196409225 -0.32958701252937317 0.9389439821243286
          0.6845600008964539 0.449974000453949 0.5734990239143372 0.5551660060882568 -0.4503290057182312 -0.6992809772491455
          0.6957110166549683 -0.5233799815177917 -0.4919950067996979 0.5722879767417908 -0.5765730142593384 -0.5831369757652283
          0.6893579959869385 -0.6756359934806824 -0.2613460123538971 0.5921120047569275 -0.793936014175415 -0.13808900117874146
          0.4568690061569214 -0.7734410166740417 -0.4393860101699829 0.3665130138397217 -0.8998939990997314 0.23634600639343262
          0.194240003824234 -0.9797449707984924 0.04868600144982338 0.5144829750061035 -0.37202298641204834 -0.7725970149040222
          0.5700539946556091 -0.38025999069213867 -0.7283139824867249 0.5888919830322266 -0.548895001411438 -0.5932289958000183
          0.7075150012969971 -0.40287500619888306 -0.5806149840354919 -0.34217000007629395 0.8099830150604248 0.47628501057624817
          0.7012439966201782 0.6946600079536438 -0.1603280007839203 0.588690996170044 -0.26353898644447327 -0.7641929984092712
          -0.09039200097322464 0.949396014213562 0.30079299211502075 -0.0597120001912117 0.9702929854393005 0.23445099592208862
          0.1188339963555336 0.9927830100059509 -0.01610800065100193 0.4021260142326355 0.786512017250061 -0.46871399879455566
          0.3457300066947937 0.8975710272789001 -0.27356499433517456 0.28663399815559387 0.9576380252838135 0.027735000476241112
          0.6546080112457275 -0.1532689929008484 -0.7402679920196533 0.658856987953186 -0.04580000042915344 -0.7508730292320251
          0.626347005367279 0.07240799814462662 -0.776174008846283 0.5836250185966492 0.48975899815559387 -0.6477019786834717
          0.531453013420105 0.7484179735183716 -0.39677199721336365 -0.16375699639320374 0.5578299760818481 0.8136389851570129
          -0.22171999514102936 0.8394190073013306 0.4962010085582733 -0.3289569914340973 0.188400998711586 0.9253609776496887
          0.5151910185813904 -0.5696539878845215 -0.6403689980506897 0.40779998898506165 -0.7518090009689331 -0.5181530117988586
          0.3868870139122009 -0.7743719816207886 -0.500665009021759 0.3414050042629242 -0.859686017036438 -0.3799769878387451
          -0.8622099757194519 0.4931029975414276 -0.11594200134277344 -0.15048499405384064 0.9815549850463867 -0.117917999625206
          -0.30646198987960815 0.9500470161437988 0.059094998985528946 -0.7704449892044067 0.637474000453949 -0.006461999844759703
          -0.8975600004196167 0.42483699321746826 -0.11789499968290329 -0.8628919720649719 0.4899440109729767 -0.1239830031991005
          -0.755852997303009 0.6532959938049316 -0.04348300024867058 -0.8991510272026062 0.42655301094055176 -0.09787999838590622
          -0.6398810148239136 0.7434160113334656 0.19464200735092163 -0.6755220293998718 0.7245280146598816 0.1368589997291565
          -0.6498770117759705 0.7227240204811096 0.23522399365901947 0.7347379922866821 0.6281669735908508 0.2560589909553528
          0.6888390183448792 0.5309470295906067 0.4935550093650818 0.2463420033454895 0.6015139818191528 0.7599319815635681
          0.4619370102882385 0.600803017616272 0.6524189710617065 0.6569370031356812 0.6652290225028992 0.3548299968242645
          0.09373799711465836 0.48603999614715576 0.8688949942588806 0.2610659897327423 0.2321780025959015 0.9369829893112183
          0.34148699045181274 0.3405500054359436 0.8760210275650024 0.3121339976787567 0.1370760053396225 0.9400969743728638
          0.29477399587631226 0.1839810013771057 0.9376879930496216 -0.19447100162506104 0.618366003036499 0.7614489793777466
          -0.6239780187606812 0.7068600058555603 0.3331669867038727 0.7827770113945007 0.43437498807907104 0.4456219971179962
          0.7533569931983948 0.04668699949979782 0.6559529900550842 0.8925340175628662 0.20639100670814514 0.40097999572753906
          0.2845509946346283 -0.3675130009651184 0.8854179978370667 0.7761880159378052 -0.08232700079679489 0.6251029968261719
          0.5372290015220642 -0.3774909973144531 0.7542449831962585 0.039101000875234604 -0.5290210247039795 0.8477069735527039
          -0.21260400116443634 -0.5847179889678955 0.7828819751739502 -0.36716800928115845 -0.5467919707298279 0.7524669766426086
          0.5566490292549133 -0.3469890058040619 -0.7548120021820068 0.59996098279953 -0.3307510018348694 -0.7284579873085022
          0.5489950180053711 -0.3091230094432831 -0.776561975479126 0.6415799856185913 -0.44556599855422974 -0.6243770122528076
          0.6519150137901306 -0.27826300263404846 -0.705390989780426 0.5948470234870911 -0.3120169937610626 -0.7408120036125183
          0.6975600123405457 -0.379954993724823 -0.6074900031089783 0.7417430281639099 -0.43108201026916504 -0.5137959718704224
          0.7854049801826477 -0.5335699915885925 -0.31375399231910706 0.7509509921073914 -0.6537050008773804 -0.09350500255823135
          0.7019699811935425 -0.7081890106201172 -0.07553800195455551 0.6627519726753235 -0.7475200295448303 0.04442000016570091
          0.5941920280456543 -0.7748820185661316 0.21562400460243225 0.28610798716545105 -0.8690900206565857 0.4035159945487976
          0.18099400401115417 -0.8448449969291687 0.503466010093689 0.309457004070282 -0.872422993183136 -0.37830400466918945
          0.03874099999666214 -0.9986870288848877 -0.03351899981498718 -0.1852409988641739 -0.8632490038871765 0.46955999732017517
          0.06411200016736984 -0.8359040021896362 0.545117974281311 0.8215640187263489 -0.3368319869041443 -0.459975004196167
          0.6742410063743591 -0.3716740012168884 -0.6381670236587524 0.7105739712715149 -0.1910330057144165 -0.6771939992904663
          0.7497829794883728 0.6303340196609497 -0.20125900208950043 0.8395609855651855 0.3083229959011078 -0.44729700684547424
          -0.35803601145744324 0.6905140280723572 0.6284909844398499 -0.6432899832725525 0.5848050117492676 0.49414700269699097
          0.18889999389648438 0.9386540055274963 0.28852400183677673 0.31421199440956116 0.9216179847717285 0.22779600322246552
          -0.4029349982738495 0.5446659922599792 0.7355149984359741 -0.3857649862766266 0.5535939931869507 0.7380509972572327
          0.009289000183343887 0.9838879704475403 0.1785459965467453 0.4393480122089386 0.8609049916267395 -0.25654399394989014
          0.054138001054525375 0.9658349752426147 0.2534410059452057 0.17150099575519562 0.9384570121765137 0.2998110055923462
          0.25473201274871826 0.8892520070075989 0.379925012588501 0.5300319790840149 0.8422579765319824 -0.0983240008354187
          0.4675639867782593 0.8737289905548096 0.1340949982404709 0.5971800088882446 -0.33758699893951416 -0.7276059985160828
          0.6399819850921631 -0.03695499897003174 -0.7674999833106995 0.5606909990310669 0.8230119943618774 -0.09097699820995331
          0.6257190108299255 0.4224799871444702 -0.6557329893112183 -0.5852270126342773 -0.37158700823783875 0.7207159996032715
          0.44093799591064453 -0.68647301197052 -0.5782120227813721 0.3471370041370392 -0.8170459866523743 -0.4603610038757324
          0.3132289946079254 0.8519430160522461 -0.41962099075317383 -0.005404000170528889 0.9380289912223816 -0.3465160131454468
          0.0691090002655983 0.9942690134048462 -0.08156699687242508 -0.5947679877281189 0.7803109884262085 -0.19330400228500366
          -0.8361679911613464 0.5387380123138428 0.1028830036520958 -0.12373699992895126 0.9624130129814148 0.24176600575447083
          -0.4778139889240265 0.6014760136604309 0.640250027179718 -0.8480470180511475 0.5298539996147156 -0.008435999974608421
          -0.930512011051178 0.3662570118904114 -0.002133999951183796 -0.8011639714241028 0.5922719836235046 0.08573400229215622
          -0.6850839853286743 0.6487380266189575 0.33135899901390076 0.7757859826087952 0.5958470106124878 0.2076610028743744
          0.9114720225334167 0.3714590072631836 0.17673900723457336 0.5634649991989136 0.22724300622940063 0.7942720055580139
          0.44844499230384827 0.24521400034427643 0.8595160245895386 0.8017730116844177 0.36333999037742615 0.47449401021003723
          0.41785499453544617 0.5135639905929565 0.7494320273399353 0.7780449986457825 0.5759750008583069 0.25079599022865295
          0.13743099570274353 0.35533300042152405 0.924580991268158 0.35165101289749146 0.04452899843454361 0.9350720047950745
          0.3275040090084076 0.15987199544906616 0.9312260150909424 -0.4180929958820343 0.6123690009117126 0.6709709763526917
          0.9647229909896851 -0.21025300025939941 0.15843899548053741 0.9805759787559509 0.1805649995803833 0.07659400254487991
          0.2761189937591553 -0.4540959894657135 0.8470860123634338 0.04012700170278549 -0.5115529894828796 0.8583139777183533
          -0.011567000299692154 -0.6177939772605896 0.7862550020217896 0.7976170182228088 -0.4941810071468353 0.34582099318504333
          0.45250800251960754 -0.7462130188941956 0.4882650077342987 0.24180200695991516 -0.6753889918327332 0.6966930031776428
          -0.4129439890384674 -0.5973299741744995 0.687512993812561 -0.37394800782203674 -0.57989501953125 0.7237989902496338
          -0.5189939737319946 -0.6292589902877808 0.5785139799118042 -0.5812360048294067 -0.6227239966392517 0.523813009262085
          0.6082149744033813 -0.3507849872112274 -0.7120559811592102 0.789991021156311 -0.43563398718833923 -0.4314369857311249
          0.5778390169143677 -0.28837499022483826 -0.7635070085525513 0.6032189726829529 -0.21708199381828308 -0.7674649953842163
          0.6888790130615234 -0.31206199526786804 -0.6542649865150452 0.7739859819412231 -0.37672099471092224 -0.5089470148086548
          0.848846971988678 -0.4807260036468506 -0.21991199254989624 0.7841359972953796 -0.6183130145072937 0.0531029999256134
          -0.3140299916267395 -0.8516690135002136 0.4195770025253296 0.32177799940109253 -0.8098750114440918 -0.4904710054397583
          -0.04034699872136116 -0.999098002910614 0.013265999965369701 -0.2982639968395233 -0.8702049851417542 0.39215001463890076
          -0.31718799471855164 -0.7240350246429443 0.6125079989433289 0.8811650276184082 -0.4645650088787079 0.087909996509552
          0.8830569982528687 -0.37874799966812134 -0.2770560085773468 0.6713820099830627 -0.2253279983997345 -0.7060269713401794
          0.35089701414108276 -0.5973749756813049 0.7211210131645203 0.8660929799079895 -0.49985599517822266 -0.005115000065416098
          0.7740399837493896 -0.613152027130127 0.15782099962234497 0.36493900418281555 -0.16360899806022644 -0.9165430068969727
          0.3915660083293915 0.015131999738514423 -0.9200249910354614 0.553725004196167 0.2758069932460785 -0.7856960296630859
          0.7044190168380737 0.40906399488449097 -0.5800520181655884 0.5008689761161804 0.8179410099983215 -0.28302499651908875
          -0.09820599853992462 0.9065840244293213 0.41043999791145325 -0.2575240135192871 0.9256119728088379 0.2773529887199402
          -0.3917140066623688 0.9077969789505005 0.1498820036649704 -0.49514201283454895 0.8683980107307434 0.026830000802874565
          -0.7100009918212891 0.696382999420166 0.10464300215244293 -0.6936240196228027 0.670412003993988 -0.26350298523902893
          -0.739732027053833 0.504813015460968 -0.44492700695991516 -0.9263219833374023 0.2882789969444275 0.24253399670124054
          -0.13192300498485565 0.3373500108718872 0.9320899844169617 -0.6383829712867737 -0.34011900424957275 0.6904969811439514
          -0.6723510026931763 -0.2872070074081421 0.6822429895401001 0.4607830047607422 0.8233850002288818 0.33123400807380676
          0.5695840120315552 -0.422309011220932 -0.705145001411438 0.4271480143070221 -0.6816509962081909 -0.5940499901771545
          0.6628810167312622 -0.06955300271511078 -0.7454869747161865 0.7898849844932556 0.4961319863796234 -0.36046499013900757
          0.6183140277862549 0.7767410278320312 0.11983499675989151 -0.6754180192947388 -0.45521900057792664 0.5801600217819214
          0.7653509974479675 0.5405799746513367 -0.3493019938468933 0.44706401228904724 0.8849290013313293 -0.130513995885849
          -0.23613500595092773 0.8503119945526123 -0.4703289866447449 -0.5027520060539246 0.8159340023994446 -0.2854689955711365
          -0.7744719982147217 0.6090310215950012 -0.1710990071296692 0.20572100579738617 0.9158509969711304 0.3448140025138855
          -0.8910539746284485 0.4010170102119446 -0.2126220017671585 -0.9177330136299133 0.3874010145664215 -0.08766800165176392
          -0.9751819968223572 -0.21092699468135834 -0.06730999797582626 -0.8409979939460754 -0.4781689941883087 0.25313499569892883
          -0.08438599854707718 0.3825240135192871 0.9200839996337891 -0.3485490083694458 0.11754599958658218 0.9298909902572632
          -0.8484320044517517 0.31817200779914856 0.4230009913444519 -0.6048070192337036 0.1273149996995926 0.7861300110816956
          -0.9683359861373901 0.2381719946861267 -0.07482600212097168 -0.9391980171203613 0.32452499866485596 -0.11221300065517426
          -0.9832929968833923 0.18189400434494019 -0.007065000012516975 -0.988411009311676 0.11121399700641632 -0.1033179983496666
          -0.8514760136604309 0.4988749921321869 0.1615930050611496 -0.6692730188369751 0.622596025466919 0.4055219888687134
          -0.39326000213623047 0.5520150065422058 0.735273003578186 0.9748780131340027 0.18748599290847778 -0.12025900185108185
          0.9581180214881897 0.2861889898777008 0.01025800034403801 0.7843800187110901 0.26236099004745483 0.5620629787445068
          0.41728800535202026 0.10213000327348709 0.903016984462738 0.37157899141311646 0.04873200133442879 0.9271209836006165
          0.15978200733661652 0.3569760024547577 0.9203460216522217 0.24913500249385834 0.004412999842315912 0.9684590101242065
          0.3578230142593384 0.02154799923300743 0.9335409998893738 0.4494610130786896 0.07684099674224854 0.8899890184402466
          0.3649919927120209 0.24671800434589386 0.8977259993553162 0.9594249725341797 -0.07252699881792068 -0.272475004196167
          0.8333420157432556 -0.3007490038871765 -0.4637790024280548 -0.5183770060539246 -0.599174976348877 0.6101430058479309
          -0.44317299127578735 -0.6982409954071045 0.5621899962425232 -0.6241040229797363 -0.680296003818512 0.38430601358413696
          -0.6382799744606018 -0.526449978351593 0.5616490244865417 -0.4118320047855377 -0.874517023563385 0.2561529874801636
          0.6966609954833984 -0.6013290286064148 -0.3912389874458313 0.6178060173988342 -0.39787501096725464 -0.6782410144805908
          0.6618250012397766 -0.5636569857597351 -0.4942460060119629 0.7243689894676208 -0.6724629998207092 -0.1519310027360916
          0.5550379753112793 -0.2833549976348877 -0.7820760011672974 0.6621909737586975 -0.205594003200531 -0.7205790281295776
          0.6102629899978638 -0.19515499472618103 -0.7677850127220154 0.601997971534729 -0.4044579863548279 -0.6884850263595581
          -0.03229599818587303 -0.9710389971733093 -0.23672699928283691 0.28089699149131775 -0.7617490291595459 -0.5838119983673096
          0.8781780004501343 -0.4723530113697052 0.07540299743413925 0.8758990168571472 -0.4745180010795593 0.08736900240182877
          0.8629969954490662 -0.48530399799346924 0.14041300117969513 0.8878350257873535 -0.35719698667526245 -0.2901020050048828
          0.8917739987373352 -0.44623100757598877 0.07494500279426575 0.9016029834747314 -0.3917039930820465 -0.18352200090885162
          0.7802209854125977 -0.27325698733329773 -0.5626590251922607 0.6271870136260986 -0.398173987865448 -0.6693990230560303
          0.7021499872207642 -0.6471650004386902 -0.2969219982624054 0.05756499990820885 -0.26302701234817505 -0.9630699753761292
          0.10659199953079224 -0.3657290041446686 -0.9245970249176025 0.14474700391292572 -0.41711100935935974 -0.897255003452301
          -0.5647159814834595 -0.3540149927139282 -0.7454990148544312 -0.45751601457595825 -0.3811509907245636 -0.8033689856529236
          0.5277550220489502 -0.3537450134754181 -0.7722300291061401 -0.017044000327587128 -0.5398340225219727 0.8415989875793457
          -0.2400059998035431 -0.2941020131111145 0.9251490235328674 -0.6265349984169006 0.03141099959611893 0.7787600159645081
          -0.2668139934539795 -0.17343300580978394 0.9480140209197998 0.5063819885253906 -0.5587599873542786 0.6567829847335815
          -0.3719649910926819 -0.3257319927215576 0.8692179918289185 0.824629008769989 -0.5650500059127808 -0.026556000113487244
          0.8542850017547607 -0.5191230177879333 -0.02662999927997589 0.6313170194625854 -0.7525920271873474 0.18719899654388428
          0.16464999318122864 -0.6832209825515747 0.7114070057868958 -0.0650010034441948 0.1702899932861328 -0.9832479953765869
          -0.9216189980506897 0.2018039971590042 -0.3315019905567169 -0.2907260060310364 0.4559989869594574 -0.841156005859375
          -0.2665559947490692 0.564428985118866 -0.7812600135803223 -0.145223006606102 0.606719970703125 -0.7815380096435547
          0.241907998919487 0.4711979925632477 -0.8482059836387634 0.08980599790811539 0.828249990940094 -0.5531160235404968
          0.3214539885520935 0.7426930069923401 -0.587431013584137 0.4825420081615448 0.6414279937744141 -0.5964260101318359
          0.2404710054397583 0.9179379940032959 -0.3155359923839569 0.03144200146198273 0.9490650296211243 -0.313508003950119
          -0.45291998982429504 0.7564389705657959 -0.4718729853630066 -0.1952980011701584 0.8309950232505798 -0.5208699703216553
          -0.8236910104751587 -0.013279999606311321 0.5668830275535583 -0.6316789984703064 -0.5476210117340088 0.5487200021743774
          -0.807341992855072 0.10398299992084503 0.5808489918708801 0.42299699783325195 0.4559290111064911 0.7830719947814941
          0.12713399529457092 0.09219399839639664 0.9875919818878174 -0.592635989189148 -0.4372499883174896 0.6764569878578186
          -0.319581001996994 -0.28425198793411255 0.9039180278778076 0.5030530095100403 0.682299017906189 0.530476987361908
          0.6515470147132874 0.7118719816207886 0.2621549963951111 0.6885049939155579 0.7053970098495483 0.16845199465751648
          0.9082340002059937 0.40314799547195435 -0.11216899752616882 0.5869100093841553 0.7716130018234253 0.2452549934387207
          0.5974069833755493 0.3567500114440918 0.7182160019874573 0.9885849952697754 0.15000499784946442 0.014101999811828136
          0.7965440154075623 0.07593400031328201 -0.599793016910553 0.4323810040950775 0.3436119854450226 -0.83365398645401
          -0.8906949758529663 0.1922769993543625 0.41193699836730957 -0.8597720265388489 0.39596301317214966 0.32249900698661804
          -0.8398299813270569 -0.017483999952673912 0.542568027973175 -0.44196298718452454 0.886584997177124 -0.1365160048007965
          0.1880050003528595 0.536037027835846 -0.8229939937591553 -0.9548490047454834 0.04562000185251236 0.29356899857521057
          -0.9932609796524048 0.11466100066900253 -0.016913000494241714 -0.991150975227356 -0.01360700000077486 0.1320430040359497
          0.0079950001090765 -0.961995005607605 0.2729490101337433 -0.5094109773635864 -0.8513500094413757 0.12531499564647675
          0.06300599873065948 -0.12698599696159363 0.9899010062217712 -0.34043899178504944 -0.24653999507427216 0.9073690176010132
          -0.8525199890136719 0.08419100195169449 0.5158690214157104 -0.6496779918670654 -0.24994899332523346 0.7179440259933472
          -0.8801100254058838 0.3559580147266388 0.31416699290275574 -0.9589539766311646 -0.017566999420523643 0.28301700949668884
          -0.9728860259056091 0.03959299996495247 0.22787000238895416 -0.9317200183868408 0.16369399428367615 0.3241960108280182
          -0.19165800511837006 0.43245700001716614 0.8810489773750305 0.9536949992179871 0.1489260047674179 -0.26131799817085266
          0.8683969974517822 -0.08411499857902527 -0.48868298530578613 0.9310640096664429 0.26754799485206604 0.24806800484657288
          0.5277130007743835 0.1783680021762848 0.8304839730262756 0.3552060127258301 0.10684700310230255 0.9286620020866394
          0.2968449890613556 0.12817500531673431 0.9462850093841553 0.17390300333499908 0.06191999837756157 0.9828140139579773
          0.4397749900817871 0.08612900227308273 0.8939679861068726 0.39044100046157837 0.12797099351882935 0.9116899967193604
          0.4858520030975342 0.15281899273395538 0.8605780005455017 0.5006309747695923 0.25359201431274414 0.8276829719543457
          0.29569199681282043 0.32708001136779785 0.8975440263748169 -0.46807700395584106 -0.8122940063476562 0.34797000885009766
          -0.35418900847435 -0.9297620058059692 0.10046699643135071 0.6123560070991516 -0.7695279717445374 -0.18123899400234222
          0.6204829812049866 -0.270345002412796 -0.7361479997634888 0.7942100167274475 -0.33285701274871826 -0.5083670020103455
          0.7294800281524658 -0.5867720246315002 -0.3515090048313141 0.5992410182952881 -0.2649950087070465 -0.7554389834403992