<?xml version="1.0"?>
<VTKFile type="PolyData" version="0.1" byte_order="LittleEndian" header_type="UInt32" compressor="vtkZLibDataCompressor">
  <PolyData>
    <Piece NumberOfPoints="73" NumberOfVerts="0" NumberOfLines="0" NumberOfStrips="0" NumberOfPolys="142">
      <PointData Normals="Normals">
        <DataArray type="Float32" Name="Normals" NumberOfComponents="3" format="ascii" RangeMin="0.9999994596889485" RangeMax="1.0000005534898015">
          -0.7180280089378357 -0.37359198927879333 0.5872520208358765 -0.9874789714813232 -0.0498259998857975 -0.14967599511146545
          -0.7562829852104187 -0.6280580163002014 0.18324799835681915 -0.5004050135612488 -0.5279120206832886 0.6862249970436096
          -0.9283599853515625 -0.15873600542545319 0.33608201146125793 0.15126800537109375 -0.16167600452899933 0.9751819968223572
          0.005034999921917915 -0.48015299439430237 0.8771700263023376 -0.580456018447876 -0.5605030059814453 0.5906839966773987
          -0.7801849842071533 -0.4240339994430542 -0.45989900827407837 -0.9086509943008423 0.4170359969139099 -0.020857999101281166
          -0.5016660094261169 0.5787889957427979 -0.6429110169410706 -0.6364459991455078 0.16472600400447845 -0.753525972366333
          -0.2948110103607178 -0.8890680074691772 0.35020801424980164 -0.6227669715881348 -0.7645149827003479 -0.16636699438095093
          -0.5404090285301208 -0.8386639952659607 0.06782999634742737 -0.4021979868412018 -0.9004250168800354 0.16574400663375854
          0.12741799652576447 -0.23122599720954895 0.9645199775695801 0.04907900094985962 -0.5207690000534058 0.8522859811782837
          -0.8573160171508789 0.31126800179481506 0.41002601385116577 -0.5971710085868835 -0.6247349977493286 0.5030829906463623
          -0.7882720232009888 -0.1557309925556183 0.5952939987182617 0.6278510093688965 0.11957699805498123 0.7690929770469666
          0.913112998008728 -0.1834859997034073 0.36408400535583496 0.24912600219249725 -0.7667210102081299 0.5916720032691956
          -0.09277299791574478 -0.9424269795417786 0.3212850093841553 -0.12052399665117264 -0.3622959852218628 -0.9242380261421204
          -0.14016200602054596 -0.8735430240631104 -0.46612998843193054 -0.46288299560546875 0.7663940191268921 -0.4453980028629303
          -0.7641350030899048 0.6403430104255676 -0.07783500105142593 -0.7422119975090027 0.6273000240325928 0.23582999408245087
          -0.2783389985561371 0.4242269992828369 -0.861719012260437 0.11921899765729904 0.5864289999008179 -0.8011789917945862
          0.1794389933347702 0.6032599806785583 -0.7770959734916687 0.09992899745702744 0.5317010283470154 -0.8410159945487976
          -0.3298180103302002 -0.006262999959290028 -0.9440240263938904 0.05719099938869476 -0.9944720268249512 -0.08806099742650986
          0.2608030140399933 -0.948818027973175 0.17811599373817444 0.5029550194740295 -0.6301739811897278 0.5915380120277405
          -0.23292499780654907 -0.96247398853302 -0.1392499953508377 -0.5798370242118835 0.1752530038356781 0.7956600189208984
          -0.5110700130462646 0.7081990242004395 0.48709601163864136 -0.3677830100059509 -0.39123600721359253 0.8436049818992615
          -0.06931500136852264 -0.9180520176887512 0.3903529942035675 0.9194769859313965 -0.19190900027751923 0.3431209921836853
          0.9384250044822693 0.1286509931087494 0.3206369876861572 0.9126780033111572 0.07733199745416641 -0.401297003030777
          0.9691640138626099 -0.17703300714492798 -0.17140699923038483 0.9156389832496643 -0.32913199067115784 -0.2308190017938614
          0.6508749723434448 -0.7532960176467896 0.09438200294971466 0.5793319940567017 -0.6128039956092834 -0.537443995475769
          0.21007099747657776 0.048464998602867126 -0.9764840006828308 0.5745559930801392 -0.14760999381542206 -0.8050450086593628
          0.3338260054588318 -0.8764389753341675 -0.34700900316238403 -0.5358240008354187 0.8385530114173889 -0.09860099852085114
          0.6019880175590515 0.6122739911079407 -0.5125730037689209 -0.09438999742269516 0.9776139855384827 -0.18804499506950378
          -0.3784250020980835 0.9096869826316833 0.1710669994354248 0.08457999676465988 0.32247400283813477 -0.9427919983863831
          0.6907610297203064 0.2697579860687256 -0.6708800196647644 0.5650830268859863 0.39848101139068604 -0.7224220037460327
          0.5889729857444763 0.2937769889831543 -0.7528650164604187 0.6000270247459412 -0.7907840013504028 -0.12094900012016296
          0.2464430034160614 -0.2957629859447479 0.9229249954223633 0.1000090017914772 0.24768300354480743 0.9636650085449219
          0.17660699784755707 0.7196239829063416 0.6715289950370789 -0.04795600101351738 0.9638919830322266 0.26193898916244507
          0.5252760052680969 -0.7523919939994812 0.3974809944629669 0.8455590009689331 0.005588999949395657 -0.5338519811630249
          0.9730079770088196 -0.22730499505996704 -0.03985299915075302 0.7143599987030029 0.6926910281181335 0.09934300184249878
          0.8715819716453552 -0.034063998609781265 0.4890640079975128 0.6219930052757263 0.6518920063972473 0.43377599120140076
          0.9027630090713501 0.3025380074977875 0.3057610094547272
          <InformationKey name="L2_NORM_RANGE" location="vtkDataArray" length="2">
            <Value index="0">
              0.99999945969
            </Value>
            <Value index="1">
              1.0000005535
            </Value>
          </InformationKey>
        </DataArray>
      </PointData>
      <CellData>
      </CellData>
      <Points>
        <DataArray type="Float32" Name="Points" NumberOfComponents="3" format="ascii" RangeMin="0.002468044955360396" RangeMax="0.026295671084252275">
          -0.009491000324487686 -0.009290000423789024 -0.008409000001847744 -0.01003200002014637 -0.01143999956548214 -0.017199000343680382
          -0.0076790000312030315 -0.01488799974322319 -0.012198000214993954 -0.006256000138819218 -0.014409000054001808 -0.008465000428259373
          -0.010304000228643417 -0.006041999906301498 -0.008476000279188156 -0.005646999925374985 -0.01119299978017807 -0.0073379999957978725
          -0.0062489998526871204 -0.009197000414133072 -0.006477000191807747 -0.007792000193148851 -0.00673400005325675 -0.006118000019341707
          -0.009208999574184418 -0.012773999944329262 -0.01899000070989132 -0.009607999585568905 -0.0032190000638365746 -0.008522000163793564
          -0.00902200024574995 -0.004904000088572502 -0.014871000312268734 -0.008558999747037888 -0.010603000409901142 -0.019509999081492424
          -0.004358000122010708 -0.016986999660730362 -0.010230000130832195 -0.007631000131368637 -0.015033000148832798 -0.017904000356793404
          -0.005570000037550926 -0.01690099947154522 -0.012706000357866287 -0.004585000220686197 -0.017121000215411186 -0.011246000416576862
          -0.004005999770015478 -0.01535400003194809 -0.008170000277459621 -0.0034129999112337828 -0.01629200018942356 -0.008565000258386135
          -0.007675000000745058 -0.001981999957934022 -0.00304200011305511 -0.0074269999749958515 -0.005553999915719032 -0.0031759999692440033
          -0.007926000282168388 -0.004350999835878611 -0.002873999997973442 -0.0016659999964758754 -0.01382800005376339 -0.00955200009047985
          -0.00006500000017695129 -0.005867000203579664 -0.012949000112712383 -0.006053000222891569 -0.007829000242054462 -0.005423999857157469
          -0.005677000153809786 -0.006548999808728695 -0.0031349998898804188 -0.004718000069260597 -0.01421399973332882 -0.02161400020122528
          -0.005206000059843063 -0.015742000192403793 -0.019711999222636223 -0.005404000170528889 0.00003899999865097925 -0.012474999763071537
          -0.007501999847590923 0.000058000001445179805 -0.006207999773323536 -0.00685499981045723 0.000610999995842576 -0.00418000016361475
          -0.005270000081509352 -0.010847000405192375 -0.02130799926817417 -0.0008829999715089798 0.0008009999874047935 -0.013187999837100506
          -0.004430999979376793 -0.010212000459432602 -0.020754000172019005 -0.003306000027805567 -0.004761999938637018 -0.01623000018298626
          -0.0046640001237392426 -0.012864000163972378 -0.021758999675512314 -0.0032949999440461397 -0.01759300008416176 -0.012943999841809273
          -0.00215000007301569 -0.017488999292254448 -0.011006000451743603 -0.00145800004247576 -0.0164560005068779 -0.009368999861180782
          -0.004656999837607145 -0.017254000529646873 -0.01423100009560585 -0.004604000132530928 -0.0008169999928213656 0.0008069999748840928
          -0.00381799996830523 0.0017470000311732292 -0.0007929999846965075 -0.004188000224530697 -0.003894000081345439 0.000610999995842576
          -0.004778999835252762 -0.006339999847114086 -0.0013099999632686377 0.00003899999865097925 -0.015469999983906746 -0.010812000371515751
          -0.00015199999324977398 -0.012892000377178192 -0.012256000190973282 -0.0008379999781027436 -0.007877999916672707 -0.01590700075030327
          0.0010509999701753259 -0.0013200000394135714 -0.010576000437140465 0.00009999999747378752 -0.015190999954938889 -0.013798999600112438
          -0.003845999948680401 -0.005330000072717667 -0.0048870001919567585 -0.0033839999232441187 -0.014449000358581543 -0.02063100039958954
          -0.0041809999383986 -0.01244099996984005 -0.021803999319672585 -0.003759999992325902 -0.013172999955713749 -0.021654000505805016
          -0.003487000009045005 -0.017108000814914703 -0.014411999844014645 -0.004120000172406435 0.003263999940827489 -0.006936999969184399
          0.001044000033289194 0.0036539998836815357 -0.0087890001013875 -0.0008839999791234732 0.004358000122010708 -0.007096999790519476
          -0.0022529999259859324 0.004019000101834536 -0.005104999989271164 -0.004592000041157007 -0.01152000017464161 -0.02171500027179718
          -0.00045900000259280205 -0.0014680000022053719 -0.013818999752402306 -0.0022090000566095114 -0.006868999917060137 -0.017263000831007957
          -0.003169999923557043 -0.011630999855697155 -0.020975999534130096 -0.0008580000139772892 -0.016548000276088715 -0.01243900042027235
          -0.0026400000788271427 -0.002191999927163124 0.001303000026382506 -0.001943000010214746 0.00042600001324899495 0.0014609999489039183
          -0.0007570000016130507 0.002340999897569418 0.0003020000003743917 -0.00024199999461416155 0.0041809999383986 -0.0038819999899715185
          -0.0032399999909102917 -0.005748999770730734 -0.0007409999961964786 -0.0015920000150799751 -0.012171999551355839 -0.019068999215960503
          0.0026519999373704195 0.0004239999980200082 -0.006136999931186438 0.0020039998926222324 0.003845999948680401 -0.0062489998526871204
          0.0019490000559017062 0.0004490000137593597 -0.002623999956995249 -0.000039999998989515007 0.003240999998524785 -0.0015399999683722854
          0.0019460000330582261 0.0021089999936521053 -0.004869000054895878
          <InformationKey name="L2_NORM_RANGE" location="vtkDataArray" length="2">
            <Value index="0">
              0.0024680449554
            </Value>
            <Value index="1">
              0.026295671084
            </Value>
          </InformationKey>
        </DataArray>
      </Points>
      <Verts>
        <DataArray type="Int64" Name="connectivity" format="ascii" RangeMin="1e+299" RangeMax="-1e+299">
        </DataArray>
        <DataArray type="Int64" Name="offsets" format="ascii" RangeMin="1e+299" RangeMax="-1e+299">
        </DataArray>
      </Verts>
      <Lines>
        <DataArray type="Int64" Name="connectivity" format="ascii" RangeMin="1e+299" RangeMax="-1e+299">
        </DataArray>
        <DataArray type="Int64" Name="offsets" format="ascii" RangeMin="1e+299" RangeMax="-1e+299">
        </DataArray>
      </Lines>
      <Strips>
        <DataArray type="Int64" Name="connectivity" format="ascii" RangeMin="1e+299" RangeMax="-1e+299">
        </DataArray>
        <DataArray type="Int64" Name="offsets" format="ascii" RangeMin="1e+299" RangeMax="-1e+299">
        </DataArray>
      </Strips>
      <Polys>
        <DataArray type="Int32" Name="connectivity" format="ascii" RangeMin="0" RangeMax="72">
          0 1 2 2 3 0
          4 1 0 5 0 3
          0 5 6 6 7 0
          0 7 4 8 2 1
          1 9 10 4 9 1
          1 10 11 11 8 1
          12 3 2 13 14 2
          13 2 8 2 15 12
          2 14 15 3 16 5
          3 17 16 17 3 12
          4 18 9 7 19 4
          20 4 19 4 20 18
          21 5 16 22 6 5
          22 5 21 7 6 23
          22 23 6 24 7 23
          19 7 24 25 26 8
          8 11 25 8 26 13
          27 10 9 28 27 9
          9 29 28 29 9 18
          11 10 30 31 10 27
          30 10 32 33 32 10
          10 31 33 11 34 25
          11 30 34 12 35 36
          12 15 35 37 17 12
          12 36 37 13 38 14
          38 13 26 14 38 15
          38 35 15 21 16 17
          21 17 37 20 39 18
          18 40 29 39 40 18
          41 19 42 42 19 24
          19 41 20 39 20 41
          43 21 37 43 44 21
          21 44 22 45 46 22
          47 45 22 47 22 44
          23 22 48 22 46 48
          48 24 23 48 42 24
          25 49 26 50 51 25
          34 50 25 25 51 49
          49 52 26 38 26 52
          28 53 27 54 31 27
          54 27 55 55 27 53
          29 53 28 56 53 29
          29 40 56 30 57 34
          32 57 30 58 33 31
          58 31 54 33 59 32
          32 59 60 60 57 32
          33 58 59 57 50 34
          35 61 36 38 52 35
          35 52 61 37 36 61
          37 61 43 39 41 62
          62 63 39 39 63 40
          64 65 40 65 56 40
          40 63 64 41 42 66
          66 62 41 48 66 42
          43 61 47 47 44 43
          45 59 58 58 46 45
          59 45 67 67 45 47
          46 58 54 54 68 46
          46 68 48 52 47 61
          47 52 49 49 67 47
          48 68 66 67 49 51
          51 50 60 50 57 60
          51 60 67 56 55 53
          68 54 69 55 69 54
          55 65 69 65 55 56
          60 59 67 70 63 62
          70 62 66 70 64 63
          64 71 65 71 64 70
          65 71 69 70 66 68
          72 68 69 70 68 72
          72 69 71 70 72 71
        </DataArray>
        <DataArray type="Int32" Name="offsets" format="ascii" RangeMin="3" RangeMax="426">
          3 6 9 12 15 18
          21 24 27 30 33 36
          39 42 45 48 51 54
          57 60 63 66 69 72
          75 78 81 84 87 90
          93 96 99 102 105 108
          111 114 117 120 123 126
          129 132 135 138 141 144
          147 150 153 156 159 162
          165 168 171 174 177 180
          183 186 189 192 195 198
          201 204 207 210 213 216
          219 222 225 228 231 234
          237 240 243 246 249 252
          255 258 261 264 267 270
          273 276 279 282 285 288
          291 294 297 300 303 306
          309 312 315 318 321 324
          327 330 333 336 339 342
          345 348 351 354 357 360
          363 366 369 372 375 378
          381 384 387 390 393 396
          399 402 405 408 411 414
          417 420 423 426
        </DataArray>
      </Polys>
    </Piece>
  </PolyData>
</VTKFile>
