<?xml version="1.0"?>
<VTKFile type="PolyData" version="0.1" byte_order="LittleEndian" header_type="UInt32" compressor="vtkZLibDataCompressor">
  <PolyData>
    <Piece NumberOfPoints="1851" NumberOfVerts="0" NumberOfLines="0" NumberOfStrips="0" NumberOfPolys="3698">
      <PointData Normals="Normals">
        <DataArray type="Float32" Name="Normals" NumberOfComponents="3" format="ascii" RangeMin="0.9999991981202059" RangeMax="1.0000007689854788">
          0.08832100033760071 -0.06466399878263474 0.9939910173416138 0.2375669926404953 0.10869000107049942 0.96527099609375
          -0.011250000447034836 0.04859500005841255 0.9987549781799316 -0.13656599819660187 -0.12766900658607483 0.9823700189590454
          0.36119601130485535 0.07210599631071091 0.9296979904174805 -0.2043280005455017 -0.18663600087165833 0.9609460234642029
          -0.18905499577522278 -0.17943499982357025 0.9654330015182495 0.20874500274658203 0.01592699997127056 0.977840006351471
          -0.020930999889969826 -0.13496799767017365 0.9906290173530579 0.06569600105285645 0.21329300105571747 0.9747769832611084
          0.36859598755836487 0.2426290065050125 0.897367000579834 0.18045200407505035 0.28746700286865234 0.94063800573349
          -0.30388399958610535 0.1782130002975464 0.9358919858932495 -0.3311940133571625 0.0005310000269673765 0.9435619711875916
          -0.41034701466560364 -0.17251400649547577 0.8954629898071289 0.46387600898742676 0.2060759961605072 0.861598014831543
          0.38000398874282837 0.037220001220703125 0.924235999584198 0.3708280026912689 0.11993599683046341 0.9209250211715698
          0.4471629858016968 0.17298799753189087 0.8775650262832642 -0.4789530038833618 -0.2264450043439865 0.848131000995636
          -0.4454370141029358 -0.2648020088672638 0.8552579879760742 -0.25035199522972107 -0.20253700017929077 0.9467329978942871
          -0.003415999934077263 -0.0688060000538826 0.9976239800453186 0.24417699873447418 0.09163600206375122 0.9653909802436829
          0.3212530016899109 0.11627600342035294 0.9398279786109924 -0.06498000025749207 0.2954480051994324 0.9531469941139221
          0.5240640044212341 0.23146499693393707 0.8196229934692383 0.43769699335098267 0.30986499786376953 0.8440409898757935
          0.3910579979419708 0.3506839871406555 0.850937008857727 0.26537901163101196 0.3250649869441986 0.9076930284500122
          0.10145600140094757 0.3277130126953125 0.9393140077590942 -0.6381350159645081 0.1140030026435852 0.7614380121231079
          -0.5462980270385742 0.07139699906110764 0.8345419764518738 -0.5640950202941895 0.1734739989042282 0.8072819709777832
          -0.30481699109077454 0.2525370121002197 0.9183200001716614 -0.5849890112876892 -0.04224200174212456 0.8099409937858582
          -0.67079097032547 -0.21371899545192719 0.7101860046386719 0.5587260127067566 0.23042400181293488 0.7966989874839783
          0.2692990005016327 0.20081600546836853 0.9418870210647583 0.4738810062408447 0.21734599769115448 0.8533449769020081
          0.2982890009880066 0.2390580028295517 0.9240530133247375 0.567471981048584 0.19765399396419525 0.7993170022964478
          0.4351089894771576 0.23180800676345825 0.8700259923934937 0.4686160087585449 0.21074099838733673 0.8578969836235046
          -0.6601459980010986 -0.21563200652599335 0.7195209860801697 -0.6554120182991028 -0.24333199858665466 0.7149999737739563
          -0.4951690137386322 -0.2592720091342926 0.8292080163955688 -0.2745409905910492 -0.22316500544548035 0.9353209733963013
          -0.04531300067901611 -0.0807889997959137 0.995701014995575 0.08736799657344818 0.09468299895524979 0.9916660189628601
          -0.1527400016784668 0.32791998982429504 0.9322760105133057 0.5166530013084412 0.22284500300884247 0.8266860246658325
          0.4232189953327179 0.22617299854755402 0.877344012260437 0.46096399426460266 0.4314489960670471 0.7754769921302795
          0.4726789891719818 0.2379940003156662 0.848488986492157 0.5170440077781677 0.3337689936161041 0.7882030010223389
          0.36032700538635254 0.43941599130630493 0.8228470087051392 0.26798999309539795 0.357899010181427 0.8944770097732544
          0.07552400231361389 0.4333150088787079 0.8980730175971985 -0.802731990814209 -0.03066200017929077 0.5955520272254944
          -0.8265960216522217 0.06644599884748459 0.5588589906692505 -0.7302190065383911 0.14215399324893951 0.6682599782943726
          -0.4240170121192932 0.2743369936943054 0.863103985786438 -0.8072620034217834 -0.18573099374771118 0.5602070093154907
          0.211557999253273 0.1912049949169159 0.9584800004959106 0.4277470111846924 0.19261999428272247 0.8831369876861572
          0.47539499402046204 0.2255920022726059 0.8503569960594177 0.4220300018787384 0.23051099479198456 0.876787006855011
          0.48329100012779236 0.24442699551582336 0.8406460285186768 0.5706499814987183 0.1914220005273819 0.798570990562439
          0.4527060091495514 0.21573099493980408 0.8651689887046814 0.49629300832748413 0.2340490072965622 0.8360109925270081
          -0.6457539796829224 -0.21265600621700287 0.733335018157959 -0.8621000051498413 -0.18508799374103546 0.47172701358795166
          -0.5274040102958679 -0.298211008310318 0.7955600023269653 -0.08387599885463715 -0.045490000396966934 0.9954370260238647
          -0.35076001286506653 -0.23605599999427795 0.9062259793281555 -0.48563501238822937 -0.33652499318122864 0.8067899942398071
          -0.13716000318527222 -0.17358699440956116 0.9752200245857239 0.001272000023163855 0.05571899935603142 0.998445987701416
          0.010557999834418297 -0.09330599755048752 0.9955819845199585 0.10142599791288376 -0.030035000294446945 0.9943900108337402
          -0.5346350073814392 0.26629799604415894 0.802029013633728 -0.4096199870109558 0.33797499537467957 0.8473399877548218
          -0.19358499348163605 0.3848170042037964 0.902463972568512 0.3789370059967041 0.5176470279693604 0.7671040296554565
          0.46437400579452515 0.5225539803504944 0.7150480151176453 0.5182769894599915 0.3804369866847992 0.7659350037574768
          0.5487719774246216 0.40965500473976135 0.7287189960479736 0.5368000268936157 0.2707040011882782 0.7991030216217041
          0.6314569711685181 0.32219499349594116 0.7053030133247375 0.26322901248931885 0.5194240212440491 0.8129630088806152
          -0.204026997089386 0.3978259861469269 0.8944870233535767 -0.009809999726712704 0.5456470251083374 0.8379579782485962
          0.16136400401592255 0.5261989831924438 0.8349109888076782 -0.22137600183486938 0.4292770028114319 0.8756219744682312
          -0.9298700094223022 -0.09347599744796753 0.35581400990486145 -0.9562389850616455 -0.040727000683546066 0.2897390127182007
          -0.9272710084915161 0.04031800106167793 0.3722139894962311 -0.8253290057182312 0.12871800363063812 0.5497850179672241
          -0.6109499931335449 0.22132299840450287 0.7601029872894287 -0.7279059886932373 0.1975100040435791 0.6566150188446045
          -0.9175860285758972 -0.17488299310207367 0.35700398683547974 0.21906700730323792 -0.020749999210238457 0.9754890203475952
          0.30574899911880493 0.03675699979066849 0.9514020085334778 0.5798799991607666 0.0750650018453598 0.8112360239028931
          0.4024069905281067 -0.11721599847078323 0.9079260230064392 0.4967289865016937 -0.08522400259971619 0.8637109994888306
          0.5714790225028992 0.07548300176858902 0.8171380162239075 0.6174719929695129 0.06056499853730202 0.7842580080032349
          0.4976300001144409 0.23943699896335602 0.8336880207061768 0.5087469816207886 0.25012001395225525 0.8237820267677307
          0.5061740279197693 0.25867098569869995 0.8227260112762451 0.6624699831008911 0.18353599309921265 0.7262560129165649
          -0.8075159788131714 -0.25775301456451416 0.5305479764938354 -0.6493110060691833 -0.33047500252723694 0.6849679946899414
          -0.9789819717407227 -0.13437700271606445 0.1534159928560257 -0.9498440027236938 -0.21826200187206268 0.2239599972963333
          -0.9124280214309692 -0.2889370024204254 0.2898100018501282 -0.59232497215271 -0.3441999852657318 0.7284759879112244
          -0.45912599563598633 -0.32214999198913574 0.8279020190238953 -0.33727800846099854 -0.2521660029888153 0.9070039987564087
          -0.6976209878921509 -0.40098801255226135 0.5937449932098389 -0.602258026599884 -0.49647998809814453 0.6251339912414551
          -0.492127001285553 -0.4452509880065918 0.7480390071868896 -0.06444600224494934 -0.30399200320243835 0.9504920244216919
          -0.2880899906158447 -0.36555999517440796 0.8850820064544678 0.01095999963581562 -0.26387301087379456 0.9644950032234192
          0.2218720018863678 -0.21120700240135193 0.9519270062446594 -0.8209149837493896 0.12301100045442581 0.5576440095901489
          -0.7198830246925354 0.22787000238895416 0.6556249856948853 -0.3019370138645172 0.41737601161003113 0.8571059703826904
          -0.5622329711914062 0.38854700326919556 0.7300170063972473 0.39250001311302185 0.5534660220146179 0.7345880270004272
          0.3304159939289093 0.5600110292434692 0.7597450017929077 0.4387829899787903 0.5876280069351196 0.679826021194458
          0.5458890199661255 0.5271850228309631 0.6512150168418884 0.6135730147361755 0.39806699752807617 0.6819609999656677
          0.712323009967804 0.3896760046482086 0.5837370157241821 0.575402021408081 0.31889599561691284 0.7531390190124512
          0.6050729751586914 0.3213590085506439 0.7284330129623413 0.5483919978141785 0.2809680104255676 0.7876060009002686
          0.660847008228302 0.28480300307273865 0.694383978843689 0.6940690279006958 0.2994050085544586 0.6546940207481384
          0.12514999508857727 0.5758939981460571 0.8078879714012146 0.246847003698349 0.5933380126953125 0.7661700248718262
          -0.3026520013809204 0.514519989490509 0.8022909760475159 -0.12297199666500092 0.6040449738502502 0.7874060273170471
          -0.4573479890823364 0.42173901200294495 0.7829229831695557 -0.9951540231704712 -0.07187400013208389 0.0671050027012825
          -0.9944440126419067 -0.09921099990606308 0.0352029986679554 -0.9759479761123657 -0.05920900031924248 0.2098110020160675
          -0.9376760125160217 0.021763000637292862 0.3468270003795624 -0.9920570254325867 -0.04879999905824661 0.1159370020031929
          0.6382160186767578 -0.18137100338935852 0.7481880187988281 0.6446849703788757 -0.027171000838279724 0.7639650106430054
          0.4485990107059479 -0.2734310030937195 0.8508780002593994 0.30817198753356934 -0.41194599866867065 0.8575140237808228
          0.6009569764137268 -0.2262060046195984 0.7666040062904358 0.873865008354187 0.14479200541973114 0.4641070067882538
          0.6491600275039673 0.21933799982070923 0.7283419966697693 0.8807039856910706 0.16117200255393982 0.4454039931297302
          0.5894629955291748 0.18605299293994904 0.7860770225524902 -0.837116003036499 -0.36642199754714966 0.40616700053215027
          -0.8868370056152344 -0.34682101011276245 0.30534398555755615 -0.7452690005302429 -0.3892970085144043 0.5413159728050232
          -0.9627040028572083 -0.23961800336837769 -0.12563399970531464 -0.969901978969574 -0.2408130019903183 -0.036042001098394394
          -0.9439359903335571 -0.32921499013900757 0.02452000044286251 -0.9230089783668518 -0.3812350034713745 0.052097998559474945
          -0.5087050199508667 -0.4280399978160858 0.7469949722290039 -0.4239490032196045 -0.36526399850845337 0.828764021396637
          -0.7812150120735168 -0.5517359972000122 0.2920460104942322 -0.8231350183486938 -0.49884098768234253 0.27130600810050964
          -0.6857709884643555 -0.6071310043334961 0.40138500928878784 -0.622793972492218 -0.5691450238227844 0.53684401512146
          -0.10841300338506699 -0.4448480010032654 0.8890200257301331 -0.47618401050567627 -0.4881590008735657 0.7314029932022095
          -0.29912298917770386 -0.44056299328804016 0.846422016620636 0.10931999981403351 -0.40724000334739685 0.9067549705505371
          -0.8872920274734497 0.0875760018825531 0.45281699299812317 -0.7319499850273132 0.2642950117588043 0.6280109882354736
          0.313975989818573 0.638109028339386 0.7030190229415894 0.3528209924697876 0.6631720066070557 0.660090982913971
          0.47459501028060913 0.6523770093917847 0.5909010171890259 0.41936400532722473 0.7162920236587524 0.5577269792556763
          0.6093130111694336 0.43418800830841064 0.6634889841079712 0.7163959741592407 0.39873799681663513 0.5725250244140625
          0.561972975730896 0.608361005783081 0.5604320168495178 0.9421079754829407 0.18710699677467346 0.2782509922981262
          0.7347059845924377 0.3262479901313782 0.5947859883308411 0.9396179914474487 0.16484400629997253 0.2999059855937958
          0.5941699743270874 0.28637999296188354 0.7516300082206726 0.6367179751396179 0.2662520110607147 0.7236719727516174
          0.6104810237884521 0.283037006855011 0.739732027053833 0.568153977394104 0.36932599544525146 0.7353900074958801
          0.6502079963684082 0.23715899884700775 0.721792995929718 -0.10682900249958038 0.650983989238739 0.751537024974823
          0.15046900510787964 0.6729159951210022 0.7242529988288879 0.21522299945354462 0.682325005531311 0.6986500024795532
          -0.4995900094509125 0.3859120011329651 0.7755529880523682 -0.4004879891872406 0.5972549915313721 0.694907009601593
          -0.5520830154418945 0.4642930030822754 0.6925569772720337 -0.9899799823760986 -0.1335819959640503 -0.045768000185489655
          -0.9992150068283081 -0.03625800088047981 -0.0159549992531538 -0.994392991065979 -0.10519599914550781 -0.01081399992108345
          -0.9707480072975159 -0.1963459998369217 -0.13818900287151337 -0.9754890203475952 -0.036841001361608505 0.21694399416446686
          -0.9715520143508911 -0.2328770011663437 0.043074000626802444 -0.9901840090751648 -0.09971100091934204 0.09794499725103378
          -0.9716160297393799 -0.13204599916934967 0.19627900421619415 0.5906980037689209 -0.3798089921474457 0.711912989616394
          0.6544129848480225 -0.2924419939517975 0.6972960233688354 0.6626350283622742 -0.18609000742435455 0.7254549860954285
          0.6590030193328857 0.01924699917435646 0.7518939971923828 0.6972740292549133 -0.10291899740695953 0.7093780040740967
          0.4618929922580719 -0.44504600763320923 0.7671949863433838 0.4259229898452759 -0.5666930079460144 0.705299973487854
          0.23080800473690033 -0.5170140266418457 0.8242719769477844 0.9737910032272339 0.06189600005745888 0.218859001994133
          0.5531780123710632 0.2501800060272217 0.7946100234985352 0.6233400106430054 0.1766510009765625 0.7617359757423401
          -0.8604199886322021 -0.4577530026435852 0.22391700744628906 -0.8922979831695557 -0.43512699007987976 0.12028899788856506
          -0.9111790060997009 -0.35734298825263977 -0.20508499443531036 -0.8459579944610596 -0.3568490147590637 -0.396248996257782
          -0.8588420152664185 -0.4713880121707916 -0.20046000182628632 -0.6546149849891663 -0.5399580001831055 0.529079020023346
          -0.6563289761543274 -0.5640630125999451 0.5010640025138855 -0.7267119884490967 -0.6301069855690002 0.2735939919948578
          -0.8280709981918335 -0.5600029826164246 -0.026379000395536423 -0.7825760245323181 -0.6223030090332031 0.017704999074339867
          -0.7397310137748718 -0.6329200267791748 0.22849500179290771 -0.442126989364624 -0.4697929918766022 0.7640799880027771
          0.029231999069452286 -0.5863980054855347 0.8094949722290039 -0.32590800523757935 -0.5568060278892517 0.7640359997749329
          0.06522800028324127 -0.47784900665283203 0.8760169744491577 -0.5645099878311157 -0.5456169843673706 0.619379997253418
          -0.9695010185241699 0.025702999904751778 0.24373599886894226 -0.8656899929046631 0.11933299899101257 0.48614999651908875
          -0.6713640093803406 0.3458380103111267 0.655489981174469 -0.8520209789276123 0.26024898886680603 0.4542360007762909
          0.17204900085926056 0.782925009727478 0.5978530049324036 0.33309099078178406 0.7606480121612549 0.5571929812431335
          0.23998099565505981 0.7890520095825195 0.5655149817466736 0.4594070017337799 0.7666950225830078 0.44846901297569275
          0.3978089988231659 0.7894200086593628 0.4675079882144928 0.42778700590133667 0.796891987323761 0.42656800150871277
          0.9013609886169434 0.22226299345493317 0.3716830015182495 0.6462839841842651 0.4197309911251068 0.6372929811477661
          0.528328001499176 0.6676300168037415 0.5245370268821716 0.6116399765014648 0.5446469783782959 0.5738080143928528
          0.6573609709739685 0.37409400939941406 0.6541640162467957 0.6677929759025574 0.28626900911331177 0.6870970129966736
          0.6443859934806824 0.29514798521995544 0.7054460048675537 0.604200005531311 0.4065839946269989 0.6852970123291016
          0.5263109803199768 0.22807399928569794 0.8191329836845398 0.6717709898948669 0.2953310012817383 0.6793400049209595
          0.5418360233306885 0.47679200768470764 0.6921589970588684 0.5873180031776428 0.43349599838256836 0.6834750175476074
          -0.47492799162864685 0.5510089993476868 0.6861720085144043 -0.09205000102519989 0.6974769830703735 0.7106710076332092
          0.052751000970602036 0.7487620115280151 0.6607360243797302 -0.6749209761619568 0.4574030041694641 0.5790200233459473
          -0.9208049774169922 -0.30601900815963745 -0.2418060004711151 -0.9417589902877808 -0.2764410078525543 0.19149300456047058
          -0.902347981929779 -0.4275049865245819 -0.05484100058674812 -0.8612779974937439 -0.4452970027923584 -0.24476900696754456
          -0.986283004283905 -0.045232001692056656 0.15874700248241425 -0.9814749956130981 -0.1547970026731491 0.1128930002450943
          -0.9920330047607422 -0.002133999951183796 0.1259630024433136 0.6016539931297302 -0.48669400811195374 0.6333569884300232
          0.5350760221481323 -0.5216259956359863 0.6645299792289734 0.6107569932937622 -0.4838620126247406 0.6267799735069275
          0.6705740094184875 -0.3871670067310333 0.6327970027923584 0.6708099842071533 -0.05081300064921379 0.7398859858512878
          0.6550019979476929 0.0719510018825531 0.7521939873695374 0.6879940032958984 -0.17985799908638 0.7030749917030334
          0.45159998536109924 -0.5499719977378845 0.7025579810142517 0.5282549858093262 -0.5817540287971497 0.6184729933738708
          0.31780898571014404 -0.5080159902572632 0.8005729913711548 0.587598979473114 0.13985200226306915 0.7969750165939331
          0.752240002155304 0.17439700663089752 0.6353899836540222 0.6205660104751587 0.290473997592926 0.7283700108528137
          -0.7948229908943176 -0.4695970118045807 -0.38436299562454224 -0.698632001876831 -0.46188899874687195 -0.5464169979095459
          -0.7894989848136902 -0.41278600692749023 -0.45420101284980774 -0.734919011592865 -0.6036289930343628 -0.30907300114631653
          -0.7499819993972778 -0.6190659999847412 0.23299099504947662 -0.6891360282897949 -0.5062549710273743 0.5184569954872131
          -0.811834990978241 -0.5763670206069946 0.09340299665927887 -0.8086429834365845 -0.5448020100593567 0.22200800478458405
          -0.7513710260391235 -0.6556860208511353 -0.07427799701690674 -0.48254498839378357 -0.6145579814910889 0.6240739822387695
          0.7725539803504944 -0.44786500930786133 0.45008599758148193 0.2904059886932373 -0.6352249979972839 0.7156490087509155
          -0.16314400732517242 -0.564864993095398 0.8088949918746948 0.0819299966096878 -0.5556640028953552 0.8273599743843079
          0.24343599379062653 -0.5026630163192749 0.8294990062713623 -0.9602869749069214 0.16302399337291718 0.22643299400806427
          -0.7885820269584656 0.3709830045700073 0.4904179871082306 -0.1357630044221878 0.7845630049705505 0.6050040125846863
          -0.07457999885082245 0.8424400091171265 0.5336040258407593 0.10175099968910217 0.8595889806747437 0.5007529854774475
          0.03568999841809273 0.8809689879417419 0.4718259871006012 0.30008700489997864 0.8337569832801819 0.4634630084037781
          0.118367999792099 0.8617730140686035 0.4932909905910492 0.3923160135746002 0.8753349781036377 0.2826249897480011
          0.4664520025253296 0.7449359893798828 0.47696200013160706 0.4074519872665405 0.8840709924697876 0.2289150059223175
          0.48029598593711853 0.7999449968338013 0.35972699522972107 0.3684529960155487 0.8593080043792725 0.35472699999809265
          0.6811550259590149 0.4516870081424713 0.576200008392334 0.6815950274467468 0.32819798588752747 0.6539989709854126
          0.695048987865448 0.39841100573539734 0.5984780192375183 0.6235150098800659 0.6193410158157349 0.4771220088005066
          0.5297979712486267 0.7255839705467224 0.4391379952430725 0.7068719863891602 0.4986250102519989 0.5017020106315613
          0.6096109747886658 0.3952679932117462 0.6871230006217957 0.6640440225601196 0.308786004781723 0.6809530258178711
          0.7117289900779724 0.09756399691104889 0.6956459879875183 0.7025589942932129 0.4374980032444 0.5612540245056152
          0.7362779974937439 0.36320099234580994 0.570946991443634 0.9391319751739502 0.21224400401115417 0.2701539993286133
          -0.6933379769325256 0.49949899315834045 0.5194060206413269 -0.25415098667144775 0.6974149942398071 0.6700890064239502
          -0.5044900178909302 0.6478840112686157 0.5707330107688904 -0.19244199991226196 0.7301650047302246 0.6556100249290466
          -0.944786012172699 -0.3275870084762573 0.008093000389635563 -0.7411710023880005 -0.5655720233917236 -0.36165401339530945
          -0.8442630171775818 -0.5126649737358093 -0.15618999302387238 -0.7954049706459045 -0.5611640214920044 -0.22896799445152283
          -0.7149159908294678 -0.5016360282897949 -0.48708900809288025 -0.9956169724464417 -0.08593299984931946 0.03690300136804581
          -0.9998630285263062 0.014181000180542469 0.00851800013333559 -0.9340270161628723 -0.31652599573135376 -0.16554300487041473
          -0.9702759981155396 -0.2106260061264038 -0.11917100101709366 -0.9940729737281799 0.06849800050258636 0.08442600071430206
          0.5899209976196289 -0.5830249786376953 0.5586360096931458 0.6281449794769287 -0.5517920255661011 0.548596978187561
          0.6153050065040588 -0.5523710250854492 0.5623930096626282 0.691785991191864 -0.3536500036716461 0.6295740008354187
          0.6012330055236816 -0.6179689764976501 0.5065889954566956 0.6087610125541687 -0.5508009791374207 0.5709890127182007
          0.646336019039154 -0.04537700116634369 0.7617020010948181 0.5497789978981018 0.33776000142097473 0.7639769911766052
          0.5535680055618286 0.04467799887061119 0.8316050171852112 0.6844620108604431 -0.36247798800468445 0.6325520277023315
          0.6623659729957581 -0.2652040123939514 0.7006700038909912 0.6696339845657349 -0.09364400058984756 0.7367640137672424
          0.43896400928497314 -0.5281310081481934 0.7269030213356018 0.26432499289512634 -0.6322659850120544 0.7282670140266418
          0.575685977935791 0.4344339966773987 0.6927139759063721 -0.6876689791679382 -0.577709972858429 -0.4397299885749817
          -0.5966389775276184 -0.5430369973182678 -0.5908740162849426 -0.5756070017814636 -0.5417749881744385 -0.612500011920929
          -0.6193360090255737 -0.6116290092468262 -0.4922730028629303 -0.7312750220298767 -0.5350419878959656 -0.42304500937461853
          -0.802711009979248 -0.5892339944839478 -0.09196999669075012 -0.8028429746627808 -0.5399140119552612 0.25285598635673523
          -0.8620089888572693 -0.5062990188598633 -0.024507999420166016 -0.8376510143280029 -0.41332799196243286 -0.35707300901412964
          0.7515599727630615 -0.5630900263786316 0.34363800287246704 -0.667572021484375 -0.638247013092041 0.38339099287986755
          -0.3731589913368225 -0.6864339709281921 0.6241490244865417 -0.6611340045928955 -0.6274240016937256 0.41138800978660583
          -0.6735579967498779 -0.6624709963798523 0.327798992395401 -0.034791000187397 -0.6436190009117126 0.7645549774169922
          0.11519300192594528 -0.6401360034942627 0.7595769762992859 -0.9587370157241821 0.18005800247192383 0.22000500559806824
          -0.8762069940567017 0.34074100852012634 0.34081900119781494 -0.4167119860649109 0.6946600079536438 0.586342990398407
          -0.38037198781967163 0.7956010103225708 0.47152501344680786 -0.14212000370025635 0.8933839797973633 0.4262250065803528
          0.2308170050382614 0.8959529995918274 0.3794640004634857 -0.03150700032711029 0.9386820197105408 0.34334200620651245
          0.29535800218582153 0.9352149963378906 0.19528399407863617 0.3035910129547119 0.9433619976043701 0.13379600644111633
          0.33893099427223206 0.9267359972000122 0.16213099658489227 0.4910709857940674 0.8094260096549988 0.32199299335479736
          0.40771400928497314 0.9095990061759949 0.0799890011548996 0.3298510015010834 0.941506028175354 0.069022998213768
          0.49399301409721375 0.847383975982666 0.19470800459384918 0.571241021156311 0.7681959867477417 0.2890639901161194
          0.6182510256767273 0.710536003112793 0.33601200580596924 0.22598899900913239 0.948989987373352 0.21987700462341309
          0.17021800577640533 0.9475269913673401 0.27059099078178406 0.7295050024986267 0.36720898747444153 0.5770450234413147
          0.6772549748420715 0.29852598905563354 0.6724640130996704 0.6902300119400024 0.618503987789154 0.37554699182510376
          0.7712429761886597 0.38946500420570374 0.5034890174865723 0.7622830271720886 0.48789000511169434 0.4253099858760834
          0.6673600077629089 0.4263109862804413 0.6106460094451904 0.6006190180778503 0.4763590097427368 0.6421369910240173
          0.7273330092430115 0.2754940092563629 0.6285619735717773 0.6908529996871948 0.34907400608062744 0.6331430077552795
          0.9330800175666809 0.22271999716758728 0.2824130058288574 0.8837460279464722 0.26663699746131897 0.3845739960670471
          -0.7422710061073303 0.5449590086936951 0.3899399936199188 -0.3255990147590637 0.7257260084152222 0.6060590147972107
          -0.6516969799995422 -0.6446760296821594 -0.39960598945617676 -0.5712029933929443 -0.6473690271377563 -0.5046190023422241
          -0.7752490043640137 -0.5335909724235535 -0.33803799748420715 -0.6838740110397339 -0.6229540109634399 -0.37979400157928467
          -0.9783579707145691 -0.13921000063419342 -0.1530900001525879 -0.9916920065879822 0.11945399641990662 0.047724999487400055
          -0.9946990013122559 0.06181799992918968 -0.08217699825763702 -0.9700779914855957 0.18131999671459198 0.1614689975976944
          -0.9876970052719116 -0.043949998915195465 -0.15007899701595306 -0.9839159846305847 0.012906000018119812 -0.17816700041294098
          -0.9345539808273315 -0.22960999608039856 -0.271822988986969 0.6726260185241699 -0.5870199799537659 0.45053499937057495
          0.5517590045928955 -0.7270659804344177 0.4085800051689148 0.5928509831428528 -0.7760559916496277 0.2150920033454895
          0.4796690046787262 -0.728531002998352 0.48903998732566833 0.6583179831504822 -0.6804310083389282 0.32191601395606995
          0.44755399227142334 -0.655892014503479 0.6078649759292603 0.6215890049934387 -0.6950010061264038 0.3613870143890381
          0.6267359852790833 -0.5309600234031677 0.5703369975090027 0.5428609848022461 -0.7597540020942688 0.3578760027885437
          0.5444179773330688 -0.7103239893913269 0.44614800810813904 0.5190230011940002 -0.7816849946975708 0.3458090126514435
          0.4770210087299347 -0.7352060079574585 0.48158299922943115 0.6976180076599121 0.11994600296020508 0.706358015537262
          0.6752550005912781 0.14817599952220917 0.7225469946861267 0.5614989995956421 0.21670100092887878 0.7985979914665222
          0.5966690182685852 0.46737000346183777 0.6523429751396179 0.6015440225601196 0.5134999752044678 0.6119340062141418
          0.5596680045127869 0.5016520023345947 0.659633994102478 0.7331929802894592 -0.18047499656677246 0.6556349992752075
          0.756496012210846 -0.19694800674915314 0.6236389875411987 0.6780120134353638 -0.4404909908771515 0.5884450078010559
          0.7338039875030518 0.07465200126171112 0.6752470135688782 0.3840219974517822 -0.5870839953422546 0.7126420140266418
          -0.015043999999761581 -0.7942309975624084 0.6074299812316895 0.2762649953365326 -0.7590199708938599 0.5895479917526245
          0.01950399950146675 -0.8678179979324341 0.4964999854564667 -0.5728610157966614 -0.4942210018634796 -0.653892993927002
          -0.586679995059967 -0.48664700984954834 -0.6472880244255066 -0.5887140035629272 -0.5857290029525757 -0.557079017162323
          -0.580469012260437 -0.5296390056610107 -0.6184970140457153 -0.5090699791908264 -0.6578059792518616 -0.5551030039787292
          -0.5695359706878662 -0.6171169877052307 -0.5429509878158569 -0.6293740272521973 -0.5668100118637085 -0.5316159725189209
          -0.6765429973602295 -0.48996999859809875 -0.5497450232505798 -0.6572309732437134 -0.5608410239219666 -0.5034930109977722
          -0.7234129905700684 -0.23536400496959686 -0.6490600109100342 -0.8300079703330994 -0.5516160130500793 0.08249799907207489
          -0.8486499786376953 -0.45574501156806946 -0.26849600672721863 -0.8070740103721619 -0.24389100074768066 -0.5377249717712402
          -0.12625999748706818 -0.7346159815788269 0.6666319966316223 -0.5309860110282898 -0.726760983467102 0.4357439875602722
          -0.6612499952316284 -0.7186449766159058 0.21516799926757812 -0.48933300375938416 -0.7747189998626709 0.4004549980163574
          -0.7127619981765747 -0.6580740213394165 0.24271300435066223 -0.9052469730377197 0.3589400053024292 0.22735300660133362
          -0.6077190041542053 0.6183500289916992 0.49831798672676086 -0.6493039727210999 0.6608179807662964 0.376460999250412
          -0.5332760214805603 0.787073016166687 0.3100529909133911 -0.3400680124759674 0.8882660269737244 0.30876898765563965
          -0.2586340010166168 0.9216899871826172 0.2891309857368469 -0.24125400185585022 0.9600170254707336 0.1419990062713623