<?xml version="1.0"?>
<VTKFile type="PolyData" version="0.1" byte_order="LittleEndian" header_type="UInt32" compressor="vtkZLibDataCompressor">
  <PolyData>
    <Piece NumberOfPoints="1434" NumberOfVerts="0" NumberOfLines="0" NumberOfStrips="0" NumberOfPolys="2864">
      <PointData Normals="Normals">
        <DataArray type="Float32" Name="Normals" NumberOfComponents="3" format="ascii" RangeMin="0.9999992263827001" RangeMax="1.0000007761393959">
          0.9495800137519836 -0.25709301233291626 0.1794459968805313 0.9297990202903748 -0.01620200090110302 0.3677099943161011
          0.933709979057312 -0.2195030003786087 0.2828490138053894 0.9221519827842712 -0.37665700912475586 0.08812499791383743
          0.9627730250358582 -0.12247200310230255 0.24097299575805664 0.9458850026130676 -0.32431599497795105 -0.011025000363588333
          0.9108179807662964 -0.4059329926967621 0.07502199709415436 0.8759809732437134 -0.4652880132198334 -0.12713700532913208
          0.9046170115470886 -0.031575001776218414 0.42505499720573425 0.926505982875824 0.0614130012691021 0.3712339997291565
          0.8398470282554626 0.15193699300289154 0.5211250185966492 0.9058259725570679 -0.4040130078792572 0.12748999893665314
          0.8580560088157654 -0.2692509889602661 0.4373140037059784 0.8285940289497375 -0.46522098779678345 0.31144899129867554
          0.8281000256538391 -0.5561509728431702 -0.0703359991312027 0.8336089849472046 -0.5514289736747742 -0.03196899965405464
          0.8104239702224731 -0.584069013595581 -0.045570001006126404 0.9786450266838074 -0.11513499915599823 0.17028599977493286
          0.9254109859466553 -0.3432700037956238 -0.16056199371814728 0.9835109710693359 -0.179067000746727 0.025320999324321747
          0.8162230253219604 -0.5466489791870117 -0.1869630068540573 0.8180469870567322 -0.5393350124359131 -0.1997929960489273
          0.6929029822349548 -0.6791509985923767 -0.24215500056743622 0.8511030077934265 -0.0667169988155365 0.5207409858703613
          0.8508229851722717 0.1910499930381775 0.48949000239372253 0.9203810095787048 0.12586399912834167 0.37021100521087646
          0.9764760136604309 0.03155500069260597 0.21330499649047852 0.7864980101585388 0.10514199733734131 0.6085780262947083
          0.7243340015411377 0.2810930013656616 0.6295449733734131 0.7268289923667908 0.252018004655838 0.6389099955558777
          0.7362080216407776 -0.6690220236778259 0.1020210012793541 0.8037139773368835 -0.3232170045375824 0.4995740056037903
          0.7517160177230835 -0.5354650020599365 0.38496801257133484 0.6260499954223633 -0.7532050013542175 0.2018509954214096
          0.6446800231933594 -0.7635859847068787 -0.03638799861073494 0.6755310297012329 -0.721563994884491 -0.15167100727558136
          0.6283990144729614 -0.7092239856719971 -0.31955501437187195 0.9985290169715881 -0.0477450005710125 0.025683000683784485
          0.779242992401123 -0.6052799820899963 -0.1625330001115799 0.96384197473526 -0.19590699672698975 -0.18063800036907196
          0.9123160243034363 -0.35455799102783203 -0.20486000180244446 0.5898669958114624 -0.7725939750671387 -0.23485299944877625
          0.5747119784355164 -0.7888389825820923 -0.2178030014038086 0.8309770226478577 -0.12643299996852875 0.5417490005493164
          0.8852810263633728 0.22682200372219086 0.4059920012950897 0.7917129993438721 0.34042999148368835 0.5072460174560547
          0.9625890254974365 0.10858000069856644 0.24825799465179443 0.7124919891357422 0.0010519999777898192 0.7016800045967102
          0.7179160118103027 0.19274699687957764 0.6689130067825317 0.7725380063056946 -0.0956140011548996 0.6277289986610413
          0.811040997505188 -0.17603500187397003 0.5578749775886536 0.6137160062789917 0.4242599904537201 0.6658499836921692
          0.6428409814834595 0.469527006149292 0.605226993560791 0.6543220281600952 0.22857700288295746 0.7208439707756042
          0.7316129803657532 0.23896299302577972 0.6384660005569458 0.5068169832229614 -0.8615099787712097 0.03063100017607212
          0.8297330141067505 -0.3501630127429962 0.43466100096702576 0.6870309710502625 -0.5926960110664368 0.42035600543022156
          0.522970974445343 -0.81802898645401 0.23943600058555603 0.329241007566452 -0.9433180093765259 0.04186199977993965
          0.4452109932899475 -0.8751959800720215 -0.18925799429416656 0.5582389831542969 -0.7852029800415039 -0.268000990152359
          0.9909229874610901 0.06037700176239014 0.120107002556324 0.9960770010948181 -0.08666600286960602 0.01785999909043312
          0.6465709805488586 -0.7354609966278076 -0.20259100198745728 0.8333050012588501 -0.5147010087966919 -0.20170700550079346
          0.9962440133094788 -0.05965299904346466 -0.06276900321245193 0.9557440280914307 -0.14901700615882874 -0.25366899371147156
          0.9058859944343567 -0.2804799973964691 -0.31733500957489014 0.8873530030250549 -0.21915200352668762 -0.4056810140609741
          0.5190809965133667 -0.8291940093040466 -0.20734700560569763 0.5142689943313599 -0.8366029858589172 -0.188742995262146
          0.39218100905418396 -0.8776019811630249 -0.2756989896297455 0.5036960244178772 -0.8301119804382324 -0.2391750067472458
          0.9424059987068176 0.19091999530792236 0.27462899684906006 0.8280450105667114 0.2980700135231018 0.47486400604248047
          0.8723469972610474 0.27201899886131287 0.40622299909591675 0.7896260023117065 0.3399519920349121 0.5108069777488708
          0.694553017616272 0.4889340102672577 0.5277690291404724 0.6945930123329163 0.16861599683761597 0.6993640065193176
          0.676351010799408 -0.23438699543476105 0.6982920169830322 0.6063100099563599 -0.3152010142803192 0.7300940155982971
          0.6264860033988953 -0.14170800149440765 0.7664420008659363 0.584496021270752 0.007480999920517206 0.8113620281219482
          0.659421980381012 -0.364205002784729 0.6576610207557678 0.7756279706954956 -0.4626539945602417 0.4293630123138428
          0.6469659805297852 -0.538096010684967 0.5402669906616211 0.49079400300979614 0.2219330072402954 0.8425359725952148
          0.5002650022506714 0.39403900504112244 0.7710180282592773 0.550104022026062 0.5430790185928345 0.6343899965286255
          0.5617319941520691 0.5869010090827942 0.5830990076065063 0.5799030065536499 0.563746988773346 0.5881350040435791
          0.5173659920692444 0.10992100089788437 0.848675012588501 0.5409790277481079 0.14855800569057465 0.8278120160102844
          0.7499709725379944 -0.5214530229568481 0.40697601437568665 0.6234549880027771 -0.6147440075874329 0.4831089973449707
          0.5055480003356934 -0.7551850080490112 0.41727301478385925 0.39967799186706543 -0.875449001789093 0.2717460095882416
          0.2797439992427826 -0.9562090039253235 0.08607300370931625 0.07840699702501297 -0.9949929714202881 0.061969999223947525
          0.2668229937553406 -0.9611849784851074 0.07021400332450867 0.46144899725914 -0.8791930079460144 -0.11867599934339523
          0.5002059936523438 -0.8628600239753723 -0.07257899641990662 0.9373300075531006 0.21146300435066223 0.2769390046596527
          0.9955840110778809 0.0885860025882721 0.031062999740242958 0.6715970039367676 -0.6951299905776978 -0.25641998648643494
          0.5534679889678955 -0.8154910206794739 -0.16925400495529175 0.5453879833221436 -0.809116005897522 -0.21882300078868866
          0.784762978553772 -0.5164240002632141 -0.34271401166915894 0.872838020324707 -0.33229199051856995 -0.3574010133743286
          0.9746760129928589 -0.056304000318050385 -0.21641600131988525 0.8989130258560181 -0.16079899668693542 -0.4075529873371124
          0.8940430283546448 -0.22435300052165985 -0.3877530097961426 0.8620100021362305 -0.1813039928674698 -0.47335800528526306
          0.35791701078414917 -0.9261900186538696 -0.11860399693250656 0.2544029951095581 -0.931456983089447 -0.26012998819351196
          0.39088600873947144 -0.8905220031738281 -0.23276199400424957 0.5006420016288757 -0.8563539981842041 -0.1265539973974228
          0.4705849885940552 -0.8717169761657715 -0.13660000264644623 0.871658980846405 0.26471999287605286 0.4124720096588135
          0.7749670147895813 0.3683449923992157 0.5135629773139954 0.6129080057144165 0.5717290043830872 0.5454090237617493
          0.5817930102348328 0.6279969811439514 0.5168520212173462 0.5805370211601257 0.571865975856781 0.5796080231666565
          0.5087739825248718 -0.5482040047645569 0.6637930274009705 0.47008100152015686 -0.40931299328804016 0.7819759845733643
          0.4462539851665497 -0.604354977607727 0.6600099802017212 0.4710020124912262 -0.24719099700450897 0.8467900156974792
          0.4136140048503876 -0.013933000154793262 0.9103459715843201 0.3840219974517822 -0.10402099788188934 0.9174460172653198
          0.42563900351524353 -0.18981300294399261 0.8847609758377075 0.4939050078392029 -0.639277994632721 0.5893909931182861
          0.3964119851589203 -0.7800490260124207 0.48412901163101196 0.3947660028934479 0.09343600273132324 0.9140179753303528
          0.36761701107025146 0.2500700056552887 0.8957250118255615 0.44892698526382446 0.42135098576545715 0.7879899740219116
          0.6260809898376465 0.4541589915752411 0.6338469982147217 0.5165119767189026 0.5151510238647461 0.6839849948883057
          0.5031200051307678 0.624538004398346 0.5973460078239441 0.6004959940910339 0.5666170120239258 0.5642250180244446
          0.2631250023841858 -0.9074820280075073 0.3274790048599243 0.09647099673748016 -0.9837080240249634 0.1516990065574646
          0.0428289994597435 -0.9877210259437561 0.15024499595165253 0.05247100070118904 -0.9893019795417786 0.13612200319766998
          0.198513001203537 -0.9501410126686096 0.24046799540519714 0.34762901067733765 -0.9348289966583252 0.07245200127363205
          0.8855239748954773 0.29383599758148193 0.3598729968070984 0.9521229863166809 0.2389640063047409 0.19067800045013428
          0.9857760071754456 0.037721000611782074 -0.1637749969959259 0.7483100295066833 -0.4899570047855377 -0.4471859931945801
          0.637158989906311 -0.6705510020256042 -0.3799870014190674 0.6527590155601501 -0.5980039834976196 -0.4650779962539673
          0.5770149827003479 -0.772816002368927 -0.26421499252319336 0.8348870277404785 -0.2712799906730652 -0.47892600297927856
          0.9191139936447144 -0.10490000247955322 -0.37977099418640137 0.8930150270462036 -0.20418499410152435 -0.4010410010814667
          0.14368599653244019 -0.9844319820404053 0.10123000293970108 0.1734990030527115 -0.9711310267448425 -0.1637129932641983
          0.13027599453926086 -0.982014000415802 -0.13666300475597382 0.04536699876189232 -0.9634619951248169 -0.26397499442100525
          0.4478659927845001 -0.8939769864082336 -0.014878000132739544 0.5680649876594543 -0.7738850116729736 -0.2800079882144928
          0.5585129857063293 -0.8228870034217834 -0.10449600219726562 0.7856749892234802 0.4157809913158417 0.45808398723602295
          0.612945020198822 0.5500580072402954 0.5672169923782349 0.6384909749031067 0.5126870274543762 0.5740039944648743
          0.49255600571632385 0.6867160201072693 0.5346109867095947 0.33477699756622314 -0.7697499990463257 0.5435150265693665
          0.37872499227523804 -0.7363280057907104 0.5607039928436279 0.22506499290466309 -0.5242729783058167 0.8212699890136719
          0.26475900411605835 -0.6993880271911621 0.6638960242271423 0.243694007396698 -0.38655200600624084 0.8894889950752258
          0.4190019965171814 -0.16943000257015228 0.8920369744300842 0.2838129997253418 -0.21965500712394714 0.933381974697113
          0.24202600121498108 -0.2414810061454773 0.9397389888763428 0.06823199987411499 -0.9553400278091431 0.2875249981880188
          0.4507310092449188 -0.04385099932551384 0.8915820121765137 0.28648000955581665 0.07580900192260742 0.9550819993019104
          0.4406749904155731 0.08671099692583084 0.893468976020813 0.30666598677635193 0.15687699615955353 0.9387999773025513
          0.3429090082645416 0.28780698776245117 0.8941929936408997 0.4285129904747009 0.43794798851013184 0.7903029918670654
          0.5895799994468689 0.43707001209259033 0.6792380213737488 0.9698939919471741 0.14056700468063354 0.19886499643325806
          0.8069660067558289 0.3193039894104004 0.4968410134315491 0.40382298827171326 0.5807369947433472 0.7068750262260437
          0.45653098821640015 0.7543720006942749 0.4717009961605072 0.34449800848960876 0.6902030110359192 0.6363499760627747
          0.36974701285362244 0.771511971950531 0.5177419781684875 0.6932830214500427 0.43106499314308167 0.577530026435852
          0.5696250200271606 0.6493859887123108 0.5038099884986877 0.12438300251960754 -0.9831439852714539 0.13400399684906006
          0.19051900506019592 -0.9413179755210876 0.2786090075969696 0.08320000022649765 -0.9843900203704834 0.15509100258350372
          0.251459002494812 -0.9433850049972534 0.21631699800491333 0.4222640097141266 -0.8894410133361816 0.17489400506019592
          0.2002280056476593 -0.9724739789962769 0.1191750019788742 0.24503999948501587 -0.9271150231361389 0.2835710048675537
          0.839372992515564 0.40347999334335327 0.36422199010849 0.9752309918403625 0.1934320032596588 -0.1072779968380928
          0.9395430088043213 0.33649399876594543 0.06349000334739685 0.8685879707336426 0.4346430003643036 0.23799100518226624
          0.9475989937782288 0.0036810000892728567 -0.3194409906864166 0.7625510096549988 -0.25449201464653015 -0.5947690010070801
          0.7239810228347778 -0.43646401166915894 -0.5341820120811462 0.6703959703445435 -0.427496999502182 -0.6064779758453369
          0.6902179718017578 -0.42309099435806274 -0.587020993232727 0.699849009513855 -0.26426300406455994 -0.6636080145835876
          0.6473489999771118 -0.515483021736145 -0.5614420175552368 0.8641129732131958 -0.13930800557136536 -0.48363399505615234
          0.7747910022735596 -0.17688199877738953 -0.6069689989089966 0.26894599199295044 -0.9382529854774475 0.2176010012626648
          0.13992999494075775 -0.9894599914550781 0.037264999002218246 -0.16542300581932068 -0.9771490097045898 -0.13347600400447845
          -0.043310001492500305 -0.987650990486145 -0.15056400001049042 0.2577250003814697 -0.9647960066795349 -0.05241300165653229
          0.01257999986410141 -0.9985129833221436 0.05304199829697609 -0.035673998296260834 -0.9985520243644714 0.04025699943304062
          -0.1932709962129593 -0.9743750095367432 -0.1150600016117096 0.5118100047111511 -0.8589959740638733 0.013279000297188759
          0.37613600492477417 -0.9260879755020142 -0.02971399948000908 0.6493579745292664 -0.6752259731292725 -0.34986400604248047
          0.6653349995613098 -0.5671319961547852 -0.4854789972305298 0.37205401062965393 -0.9212570190429688 -0.11340600252151489
          0.5097169876098633 -0.8432319760322571 -0.17072699964046478 0.732479989528656 0.4925970137119293 0.4699159860610962
          0.5279330015182495 0.6687269806861877 0.5235369801521301 0.6520329713821411 0.5796080231666565 0.48878100514411926
          0.6238740086555481 0.5893639922142029 0.5132550001144409 0.46347200870513916 0.7900710105895996 0.4012250006198883
          0.3294689953327179 0.8796510100364685 0.34302300214767456 0.3129580020904541 0.8970590233802795 0.31199800968170166
          0.4231239855289459 0.7290369868278503 0.5380250215530396 0.2753629982471466 0.8666539788246155 0.416036993265152
          0.22349800169467926 -0.862975001335144 0.4531260132789612 -0.029843999072909355 -0.6665629744529724 0.7448509931564331
          0.042114000767469406 -0.7353990077972412 0.6763240098953247 0.0684489980340004 -0.833890974521637 0.5476679801940918
          0.2544749975204468 -0.45837199687957764 0.8515499830245972 0.4349910020828247 -0.37053999304771423 0.8206610083580017
          0.3635520040988922 -0.4629029929637909 0.8084250092506409 0.4235920011997223 -0.2481050044298172 0.871213972568512
          0.42118799686431885 -0.3222930133342743 0.8477780222892761 0.23245300352573395 -0.9401819705963135 0.24904699623584747
          -0.03614199906587601 -0.9882109761238098 0.1487720012664795 0.43913400173187256 -0.33056700229644775 0.8353959918022156
          0.4757609963417053 -0.07707899808883667 0.8761910200119019 0.3901210129261017 -0.03847600147128105 0.9199590086936951
          0.09238900244235992 -0.050652001053094864 0.9944339990615845 0.018508000299334526 -0.21033799648284912 0.9774529933929443
          0.24523299932479858 -0.14694300293922424 0.9582629799842834 0.4270760118961334 0.02940100058913231 0.9037370085716248
          0.42410901188850403 -0.10287000238895416 0.8997499942779541 0.26220300793647766 0.22275599837303162 0.9389510154724121
          0.1789879947900772 0.13729999959468842 0.9742239713668823 0.14425000548362732 0.03626599907875061 0.9888759851455688
          0.37885600328445435 0.4178659915924072 0.8257459998130798 0.29708001017570496 0.29340800642967224 0.9086560010910034
          0.2837510108947754 0.26551100611686707 0.9214059710502625 0.3072449862957001 0.3495140075683594 0.8851220011711121
          0.9037920236587524 0.24587300419807434 0.35029399394989014 0.37989500164985657 0.4864639937877655 0.7867869734764099
          0.3338660001754761 0.5189840197563171 0.7868859767913818 0.5511109828948975 0.4483639895915985 0.7037370204925537
          0.24138300120830536 0.6103159785270691 0.754485011100769 0.27324000000953674 0.8884000182151794 0.3688980042934418
          0.2709049880504608 0.8599969744682312 0.432453989982605 0.24050499498844147 0.7588459849357605 0.6052359938621521
          0.4731200039386749 -0.840923011302948 0.26269200444221497 0.5066260099411011 -0.851768970489502 0.1334889978170395
          0.037234000861644745 -0.9539250135421753 0.29772600531578064 0.612197995185852 -0.7643110156059265 0.2025900036096573
          0.266414999961853 -0.8656020164489746 0.4239780008792877 0.5418059825897217 -0.7926200032234192 0.2796410024166107
          0.61810302734375 -0.7681059837341309 0.1672160029411316 0.8294240236282349 -0.5535439848899841 0.07513099908828735
          0.7669519782066345 0.5348939895629883 0.3545050024986267 0.9057260155677795 0.11376400291919708 -0.40831199288368225
          0.9598159790039062 0.23336000740528107 -0.15587100386619568 0.9372439980506897 0.3455199897289276 -0.04679799824953079
          0.7809739708900452 0.5481190085411072 0.29940900206565857 0.8817170262336731 0.45731499791145325 -0.11592300236225128
          0.8117110133171082 0.5585010051727295 0.17088499665260315 0.8603140115737915 -0.060350000858306885 -0.5061789751052856
          0.9053720235824585 -0.10091999918222427 -0.4124529957771301 0.6485859751701355 -0.15737099945545197 -0.7446950078010559
          0.6876519918441772 -0.2393849939107895 -0.6854419708251953 0.667701005935669 -0.18106000125408173 -0.7220749855041504
          0.7005130052566528 -0.26563599705696106 -0.6623589992523193 0.6949099898338318 -0.09544400125741959 -0.7127349972724915
          0.6215909719467163 -0.21098199486732483 -0.7543950080871582 0.7419000267982483 -0.17576700448989868 -0.6470630168914795
          0.8128550052642822 -0.07388900220394135 -0.5777609944343567 0.8237130045890808 -0.10064999759197235 -0.5580019950866699
          0.8296239972114563 -0.10213000327348709 -0.5489019751548767 0.31031298637390137 -0.9484599828720093 -0.06425400078296661
          0.13562600314617157 -0.9680920243263245 -0.21072299778461456 -0.20095300674438477 -0.965146005153656 -0.16766400635242462
          -0.48973700404167175 -0.8646209836006165 -0.1121940016746521 -0.49070701003074646 -0.8656780123710632 -0.09903399646282196
          0.252346009016037 -0.9669809937477112 -0.035620998591184616 -0.13943199813365936 -0.9879500269889832 0.06718199700117111
          -0.2342579960823059 -0.965237021446228 0.11593099683523178 -0.15644299983978271 -0.9664329886436462 0.20379699766635895
          0.12820999324321747 -0.9861299991607666 0.10540000349283218 0.2655769884586334 -0.9639469981193542 0.016555000096559525
          -0.3586310148239136 -0.9301210045814514 0.07910999655723572 0.7356749773025513 -0.45021501183509827 -0.5060529708862305
          0.786408007144928 -0.4254649877548218 -0.4478189945220947 0.706870973110199 -0.6293010115623474 -0.3229770064353943
          0.3333759903907776 -0.9411849975585938 -0.05505700036883354 0.5056959986686707 -0.8298929929733276 -0.2356870025396347
          0.6697859764099121 -0.64683997631073 -0.3646700084209442 0.641107976436615 0.6420090198516846 0.42048200964927673
          0.18546399474143982 0.9473419785499573 0.26104798913002014 0.1998700052499771 0.9229990243911743 0.3288230001926422
          0.5676800012588501 0.708361029624939 0.41947999596595764 0.29074999690055847 0.8478379845619202 0.44343599677085876
          -0.039590999484062195 -0.9337790012359619 0.3556540012359619 -0.17797599732875824 -0.830420970916748 0.5279449820518494
          0.19189099967479706 -0.600458025932312 0.776291012763977 0.07325199991464615 -0.7906429767608643 0.6078799962997437
          -0.13624900579452515 -0.8891549706459045 0.43685200810432434 0.2670220136642456 -0.6290019750595093 0.7301070094108582
          0.2010750025510788 -0.5671210289001465 0.7987130284309387 -0.03655099868774414 -0.7826060056686401 0.621442973613739
          0.2962239980697632 -0.4700619876384735 0.8314399719238281 0.3274089992046356 -0.5395069718360901 0.7757160067558289
          0.816565990447998 -0.5596830248832703 0.14133399724960327 0.4304240047931671 -0.3862699866294861 0.8158010244369507
          0.2528479993343353 -0.6950259804725647 0.6730579733848572 0.3311749994754791 -0.07030899822711945 0.9409459829330444
          0.22450900077819824 -0.3467710018157959 0.9106839895248413 0.24453400075435638 -0.2570819854736328 0.934939980506897
          -0.1622679978609085 -0.31039801239967346 0.9366549849510193 -0.13527199625968933 -0.20030799508094788 0.9703490138053894
          -0.2643760144710541 -0.5046690106391907 0.821835994720459 0.022113999351859093 -0.405690997838974 0.9137430191040039
          0.28924399614334106 -0.14426299929618835 0.9463220238685608 0.26261401176452637 -0.49296998977661133 0.8294659852981567
          0.11537300050258636 0.09293799847364426 0.9889649748802185 -0.043090999126434326 -0.016620000824332237 0.9989330172538757
          0.263496994972229 0.46923598647117615 0.8428450226783752 0.16969099640846252 0.28453999757766724 0.943526029586792
          0.2310969978570938 0.3787589967250824 0.8961790204048157 0.1460389941930771 0.1444990038871765 0.9786689877510071
          0.1289069950580597 0.5215579867362976 0.843421995639801 0.0691090002655983 0.6429749727249146 0.7627630233764648
          0.13371799886226654 0.8205729722976685 0.5556790232658386 0.26423901319503784 0.7839909791946411 0.5617259740829468
          0.1711989939212799 0.9315890073776245 0.3206770122051239 0.17795200645923615 0.7108870148658752 0.680420994758606
          0.5207129716873169 -0.8533509969711304 -0.025499999523162842 0.4329470098018646 -0.8928959965705872 -0.12366499751806259
          -0.10831400007009506 -0.8889489769935608 0.44501399993896484 0.09755899757146835 -0.8110669851303101 0.57676100730896
          -0.023507999256253242 -0.9008110165596008 0.43357598781585693 0.3460870087146759 -0.7877839803695679 0.5095300078392029
          0.43714800477027893 -0.8045060038566589 0.40208399295806885 0.4912779927253723 -0.8432700037956238 0.2180429995059967
          0.3390359878540039 -0.9399200081825256 0.040059998631477356 0.6563119888305664 0.692736029624939 0.2989499866962433
          0.6837980151176453 0.6645110249519348 0.30140599608421326 0.9274190068244934 0.22718000411987305 -0.2971250116825104
          0.9282730221748352 0.043866001069545746 -0.36930298805236816 0.7421720027923584 0.6700779795646667 0.013240999542176723
          0.8413310050964355 0.38042500615119934 -0.3839769959449768 0.7703400254249573 0.5580859780311584 -0.30840998888015747
          0.6319090127944946 -0.2350980043411255 -0.7385249733924866 0.633545994758606 -0.0986659973859787 -0.7673879861831665
          0.6179159879684448 -0.09361399710178375 -0.7806509733200073 0.6926609873771667 -0.06065800040960312 -0.7187079787254333
          0.7168819904327393 -0.044801000505685806 -0.6957539916038513 0.7336289882659912 -0.2509720027446747 -0.6315069794654846
          0.6615930199623108 -0.06642100214958191 -0.7469159960746765 0.6309279799461365 -0.1818619966506958 -0.7542250156402588
          0.6330659985542297 -0.2602039873600006 -0.7290549874305725 0.611739993095398 -0.30449599027633667 -0.7301080226898193
          0.7491549849510193 -0.08367100358009338 -0.6570889949798584 0.703881025314331 -0.16457000374794006 -0.6909899711608887
          0.7756320238113403 -0.12655499577522278 -0.6183680295944214 0.8279730081558228 -0.016147999092936516 -0.5605360269546509
          0.1742980033159256 -0.973887026309967 -0.14548200368881226 -0.06790100038051605 -0.9957879781723022 -0.06161300092935562
          -0.37568700313568115 -0.9207059741020203 -0.10564400255680084 -0.5430290102958679 -0.8397039771080017 -0.004104000050574541
          -0.5950829982757568 -0.8018699884414673 -0.053679000586271286 -0.500419020652771 -0.8616080284118652 0.08493100106716156
          -0.5859310030937195 -0.8097670078277588 0.031007999554276466 -0.3017610013484955 -0.9402629733085632 0.15762600302696228
          -0.26544299721717834 -0.9451649785041809 0.1902720034122467 -0.19049899280071259 -0.9443759918212891 0.26807400584220886
          -0.06184300035238266 -0.9762799739837646 0.20749199390411377 0.28123000264167786 -0.9432989954948425 -0.1763409972190857
          0.24158599972724915 -0.9533659815788269 -0.18091100454330444 0.13546599447727203 -0.9907799959182739 -0.0018690000288188457
          -0.5370039939880371 -0.817251980304718 0.20910699665546417 -0.5126839876174927 -0.822143018245697 0.24745799601078033
          -0.3861199915409088 -0.8955979943275452 0.22094400227069855 0.7908539772033691 -0.2525709867477417 -0.5574560165405273
          0.7710300087928772 -0.4164089858531952 -0.48178499937057495 0.8134170174598694 -0.1672780066728592 -0.5571100115776062
          0.34239301085472107 -0.9076020121574402 -0.24295100569725037 0.5709019899368286 -0.6260690093040466 -0.531138002872467
          0.425709992647171 -0.7902380228042603 -0.44078901410102844 0.6899909973144531 -0.43607398867607117 -0.5777130126953125
          0.20806999504566193 0.8613439798355103 0.46345698833465576 0.3272840082645416 0.8706539869308472 0.36721500754356384
          0.1910489946603775 0.8306270241737366 0.5230290293693542 0.35266000032424927 0.8370720148086548 0.41826099157333374
          0.49149999022483826 0.8006629943847656 0.34258899092674255 -0.24091500043869019 -0.8782230019569397 0.4131389856338501
          -0.028264999389648438 -0.8744249939918518 0.4843359887599945 -0.18741899728775024 -0.9225649833679199 0.3372659981250763
          0.08204200118780136 -0.7690190076828003 0.6339390277862549 -0.04087499901652336 -0.9084069728851318 0.41608500480651855
          0.1914609968662262 -0.7160189747810364 0.6713119745254517 0.009500999934971333 -0.8856580257415771 0.46424001455307007
          0.020023999735713005 -0.8388469815254211 0.5439990162849426 0.16361500322818756 -0.5802199840545654 0.7978559732437134
          -0.09739299863576889 -0.6471740007400513 0.7560949921607971 -0.35393598675727844 -0.4209440052509308 0.8351860046386719
          -0.11080099642276764 -0.08646000176668167 0.9900749921798706 -0.24660000205039978 -0.25902798771858215 0.9338589906692505
          -0.3536889851093292 -0.40722501277923584 0.8420640230178833 -0.42312198877334595 -0.6147300004959106 0.6656389832496643
          -0.3510259985923767 -0.7317410111427307 0.5842400193214417 -0.0752590000629425 -0.004282999783754349 0.9971550107002258
          -0.07664500176906586 -0.09368599951267242 0.9926469922065735 0.010804999619722366 0.4648819863796234 0.8853070139884949
          0.02588300034403801 0.38753199577331543 0.9214929938316345 -0.14323900640010834 0.24969199299812317 0.9576719999313354
          -0.08603499829769135 0.06672599911689758 0.9940549731254578 -0.17574100196361542 0.5511519908905029 0.8156880140304565
          -0.23453199863433838 0.6405670046806335 0.7312099933624268 -0.1995670050382614 0.7413970232009888 0.6407060027122498
          -0.15342199802398682 0.8568140268325806 0.4922710061073303 0.17260299623012543 0.9277700185775757 0.3308350145816803
          -0.044183000922203064 0.9108139872550964 0.4104450047016144 -0.14445999264717102 -0.8035539984703064 0.5774359703063965
          0.10210499912500381 -0.7344210147857666 0.6709700226783752 0.07033299654722214 -0.7993350028991699 0.5967550277709961
          0.05698100104928017 -0.8149679899215698 0.5766980051994324 0.2849630117416382 -0.8074100017547607 0.5166090130805969
          0.30424800515174866 -0.9074079990386963 0.28990301489830017 0.17173199355602264 -0.8778700232505798 0.44704899191856384
          0.18257799744606018 -0.975504994392395 0.122700996696949 -0.14922399818897247 -0.9887409806251526 -0.01116000022739172
          0.6016749739646912 0.7911679744720459 0.10972999781370163 0.5149570107460022 0.8340529799461365 0.19792500138282776
          0.8786259889602661 0.22324399650096893 -0.42211300134658813 0.9799190163612366 0.05839800089597702 -0.19065099954605103
          0.8212559819221497 0.0521479994058609 -0.5681719779968262 0.9697189927101135 0.04353199899196625 -0.24031199514865875
          0.8820779919624329 0.053700000047683716 -0.46803200244903564 0.6495059728622437 0.7400680184364319 -0.17447499930858612
          0.8940029740333557 0.19830100238323212 -0.40178999304771423 0.7644519805908203 0.48955199122428894 -0.4194670021533966
          0.644940972328186 0.6430479884147644 -0.41296499967575073 0.6290439963340759 -0.24912500381469727 -0.7363700270652771