<?xml version="1.0"?>
<VTKFile type="PolyData" version="0.1" byte_order="LittleEndian" header_type="UInt32" compressor="vtkZLibDataCompressor">
  <PolyData>
    <Piece NumberOfPoints="2542" NumberOfVerts="0" NumberOfLines="0" NumberOfStrips="0" NumberOfPolys="5080">
      <PointData Normals="Normals">
        <DataArray type="Float32" Name="Normals" NumberOfComponents="3" format="ascii" RangeMin="0.9999992402564813" RangeMax="1.0000007935071">
          0.28708699345588684 0.5078529715538025 0.8121989965438843 0.21230700612068176 0.4454149901866913 0.8697879910469055
          0.054127998650074005 0.5239740014076233 0.850013017654419 0.14836199581623077 0.6289590001106262 0.7631509900093079
          0.274073988199234 0.4990819990634918 0.8220710158348083 0.1476220041513443 0.5780730247497559 0.8025209903717041
          0.38072600960731506 0.5428130030632019 0.7486000061035156 0.1318109929561615 0.5976920127868652 0.7908160090446472
          -0.09017399698495865 0.6433079838752747 0.7602789998054504 -0.16338099539279938 0.5188429951667786 0.8391119837760925
          0.054933998733758926 0.5370429754257202 0.8417649865150452 0.10519199818372726 0.6179770231246948 0.7791270017623901
          -0.358473002910614 0.45862001180648804 0.8131200075149536 -0.17348100244998932 0.49096301198005676 0.8537330031394958
          -0.053874000906944275 0.4491420090198517 0.8918349742889404 0.2620980143547058 0.6099839806556702 0.7478129863739014
          0.03446299955248833 0.6276530027389526 0.7777299880981445 0.1514340043067932 0.5595939755439758 0.8148149847984314
          -0.1787170022726059 0.6348279714584351 0.7516999840736389 -0.1048159971833229 0.6211159825325012 0.7766780257225037
          -0.06741300225257874 0.5803499817848206 0.8115720152854919 0.18096700310707092 0.5958830118179321 0.7824159860610962
          -0.044241998344659805 0.667864978313446 0.7429659962654114 -0.3078640103340149 0.6216099858283997 0.7202919721603394
          0.25043201446533203 0.6227099895477295 0.7412940263748169 0.27814599871635437 0.47717899084091187 0.8336269855499268
          0.08818800002336502 0.6923720240592957 0.7161319851875305 -0.4449639916419983 0.541854977607727 0.713021993637085
          -0.5046949982643127 0.5928750038146973 0.6275209784507751 -0.6267510056495667 0.4343299865722656 0.646947979927063
          -0.28784799575805664 0.5448639988899231 0.7875699996948242 -0.29673001170158386 0.3760940134525299 0.877784013748169
          -0.4697830080986023 0.40902000665664673 0.7823079824447632 -0.6781070232391357 0.35917899012565613 0.6412190198898315
          -0.07370000332593918 0.2732810080051422 0.959106981754303 -0.31831198930740356 0.20158399641513824 0.9263049960136414
          -0.029541999101638794 0.6137599945068359 0.7889400124549866 0.2076449990272522 0.6006839871406555 0.7720509767532349
          -0.37964001297950745 0.559939980506897 0.736437976360321 0.07097899913787842 0.4433920085430145 0.893513023853302
          -0.41031399369239807 0.5380190014839172 0.7363280057907104 -0.13488799333572388 0.5966609716415405 0.7910760045051575
          -0.09510000050067902 0.6818699836730957 0.7252650260925293 -0.29739099740982056 0.6943089962005615 0.6553580164909363
          -0.4311800003051758 0.5897909998893738 0.6828100085258484 0.07410900294780731 0.5480189919471741 0.8331769704818726
          0.15511299669742584 0.5946009755134583 0.7889170050621033 0.0999080017209053 0.7882509827613831 0.6071889996528625
          -0.04371099919080734 0.7983080148696899 0.6006609797477722 -0.2434529960155487 0.5314149856567383 0.8113740086555481
          -0.12191300094127655 0.4965580105781555 0.8593999743461609 -0.3968360126018524 0.6761289834976196 0.6207820177078247
          -0.6400650143623352 0.4868740141391754 0.5943660140037537 -0.6359900236129761 0.5769259929656982 0.512516975402832
          -0.4725309908390045 0.6961579918861389 0.5404430031776428 -0.8201789855957031 0.3416059911251068 0.4589250087738037
          -0.8259099721908569 0.34028100967407227 0.4495350122451782 -0.8239129781723022 0.4201880097389221 0.38027501106262207
          -0.6369190216064453 0.5004040002822876 0.5864549875259399 -0.511821985244751 0.21890999376773834 0.830731987953186
          -0.5759900212287903 0.3561379909515381 0.7357990145683289 -0.715965986251831 0.15577800571918488 0.6805340051651001
          -0.8776789903640747 0.1676349937915802 0.44897401332855225 -0.17282800376415253 0.2350340038537979 0.9564989805221558
          -0.342056006193161 0.08474700152873993 0.9358500242233276 -0.6356440186500549 0.06781599670648575 0.7689980268478394
          -0.4994660019874573 0.5379239916801453 0.679095983505249 -0.26208001375198364 0.6885719895362854 0.6761530041694641
          -0.06530100107192993 0.6359080076217651 0.7689980268478394 -0.029410000890493393 0.5482450127601624 0.8357999920845032
          -0.15589900314807892 0.4297170042991638 0.8894039988517761 -0.3560410141944885 0.5838329792022705 0.7296389937400818
          -0.439503014087677 0.6447970271110535 0.6253589987754822 -0.2753480076789856 0.8027309775352478 0.5289679765701294
          -0.09356799721717834 0.5153319835662842 0.8518670201301575 -0.23507200181484222 0.6210479736328125 0.7476900219917297
          0.19822800159454346 0.8126839995384216 0.5479509830474854 0.04138199985027313 0.7547209858894348 0.6547390222549438
          -0.18421000242233276 0.6379799842834473 0.7476950287818909 -0.10851699858903885 0.8566179871559143 0.5044090151786804
          -0.007957999594509602 0.9066720008850098 0.42176100611686707 -0.4508399963378906 0.6123849749565125 0.6494060158729553
          -0.5458980202674866 0.6106849908828735 0.5736370086669922 -0.7520390152931213 0.5072739720344543 0.4208439886569977
          -0.6758459806442261 0.5665580034255981 0.4714280068874359 -0.48601898550987244 0.6953399777412415 0.5294219851493835
          -0.6132490038871765 0.697055995464325 0.37153398990631104 -0.7590649724006653 0.5563229918479919 0.3381190001964569
          -0.9199349880218506 0.27551600337028503 0.2789439857006073 -0.9086930155754089 0.4133189916610718 0.058694999665021896
          -0.8202329874038696 0.502373993396759 0.27356499433517456 -0.6266859769821167 0.6230419874191284 0.46806299686431885
          -0.9064270257949829 0.373320996761322 0.1975409984588623 -0.9526730179786682 0.15223799645900726 0.2631300091743469
          -0.8680790066719055 0.13398799300193787 0.47800201177597046 -0.3535799980163574 0.19228099286556244 0.9154279828071594
          -0.46419501304626465 0.055904000997543335 0.8839669823646545 -0.8212940096855164 0.09296499937772751 0.5628799796104431
          -0.5773569941520691 -0.002194999950006604 0.8164889812469482 -0.5442699790000916 -0.026977000758051872 0.8384760022163391
          -0.5246090292930603 0.6706860065460205 0.5243719816207886 -0.24176399409770966 0.5950989723205566 0.7664250135421753
          -0.43700700998306274 0.33858299255371094 0.8332989811897278 -0.45695000886917114 0.8029249906539917 0.38276299834251404
          -0.31327998638153076 0.8997120261192322 0.3039320111274719 -0.3196299970149994 0.6098920106887817 0.725167989730835
          0.16009899973869324 0.9131259918212891 0.37492600083351135 0.2343280017375946 0.9570779800415039 0.17056599259376526
          -0.04883600026369095 0.8359519839286804 0.5466259717941284 -0.15699900686740875 0.7675049901008606 0.62152099609375
          -0.3677609860897064 0.684673011302948 0.6292660236358643 -0.3587619960308075 0.8063840270042419 0.47014299035072327
          -0.08501899987459183 0.9612439870834351 0.2622630000114441 0.23691000044345856 0.9648979902267456 0.1133359968662262
          -0.36921000480651855 0.7996100187301636 0.4736120104789734 -0.5114830136299133 0.7623929977416992 0.3964119851589203
          -0.2714659869670868 0.7785670161247253 0.5658079981803894 -0.5983049869537354 0.7249640226364136 0.34125998616218567
          -0.6039620041847229 0.710627019405365 0.36088699102401733 -0.5842360258102417 0.7276890277862549 0.35935699939727783
          -0.5464649796485901 0.6975759863853455 0.46342700719833374 -0.7541459798812866 0.6275820136070251 0.19340500235557556
          -0.6740739941596985 0.4777809977531433 0.5633379817008972 -0.8325330018997192 0.4652639925479889 0.30069699883461
          -0.9599120020866394 0.26867198944091797 0.0799039974808693 -0.9643309712409973 0.23314599692821503 0.1253339946269989
          -0.8456119894981384 0.5324100255966187 0.03846300020813942 -0.8481709957122803 0.48186400532722473 -0.22002899646759033
          -0.9337239861488342 0.31177499890327454 -0.17594000697135925 -0.7038050293922424 0.6575739979743958 0.2688019871711731
          -0.9596099853515625 0.27971500158309937 0.030132999643683434 -0.9182649850845337 0.11174499988555908 0.3798710107803345
          -0.9646030068397522 0.15900099277496338 0.21038100123405457 -0.9457370042800903 0.14228999614715576 0.2921209931373596
          -0.40557700395584106 0.06735599786043167 0.911575973033905 -0.5123130083084106 0.07701300084590912 0.855338990688324
          -0.5877050161361694 0.13273300230503082 0.7981129884719849 -0.6067309975624084 0.028410999104380608 0.7943990230560303
          -0.8473230004310608 0.04924999922513962 0.5287889838218689 -0.9157509803771973 0.10792600363492966 0.3869769871234894
          -0.6211249828338623 0.03622400015592575 0.7828739881515503 -0.5706819891929626 0.018386999145150185 0.8209649920463562
          -0.3358219861984253 -0.008809000253677368 0.9418839812278748 -0.6171979904174805 0.5754420161247253 0.5365939736366272
          -0.4725610017776489 0.591763973236084 0.6530709862709045 -0.6052029728889465 0.3471969962120056 0.7163680195808411
          -0.5040109753608704 0.8344820141792297 0.22273999452590942 -0.41390499472618103 0.8896309733390808 0.19297699630260468
          -0.5123990178108215 0.8544960021972656 0.08534300327301025 -0.6146360039710999 0.7840219736099243 0.0867839977145195
          -0.01218700036406517 0.9850850105285645 0.17163799703121185 0.1815059930086136 0.9831830263137817 0.02015800029039383
          0.34839698672294617 0.9300640225410461 -0.11661799997091293 -0.23989300429821014 0.8957239985466003 0.3743390142917633
          -0.07801800221204758 0.8864120244979858 0.45627498626708984 -0.16543200612068176 0.7719709873199463 0.6137530207633972
          -0.4079520106315613 0.7384359836578369 0.5369240045547485 -0.6619110107421875 0.7066500186920166 0.2500379979610443
          -0.5493170022964478 0.8326719999313354 -0.07006099820137024 -0.2779029905796051 0.9592379927635193 0.05130000039935112
          -0.04381199926137924 0.9851070046424866 0.16627000272274017 -0.3149369955062866 0.9439690113067627 0.09867499768733978
          0.5458760261535645 0.8301119804382324 -0.11372300237417221 0.1277579963207245 0.9917960166931152 -0.004215000197291374
          -0.17384999990463257 0.9838839769363403 0.0418270006775856 -0.42673298716545105 0.8221520185470581 0.37678200006484985
          -0.19624899327754974 0.9029150009155273 0.3824000060558319 -0.2842639982700348 0.9071369767189026 0.3103159964084625
          -0.5266649723052979 0.7752509713172913 0.3487260043621063 -0.35290101170539856 0.878125011920929 0.32304200530052185
          -0.37226900458335876 0.8663449883460999 0.33296000957489014 -0.5017849802970886 0.7715420126914978 0.3910689949989319
          -0.4703789949417114 0.664546012878418 0.5806220173835754 -0.5803340077400208 0.6641290187835693 0.47132301330566406
          -0.49111899733543396 0.6962609887123108 0.523472011089325 -0.7577630281448364 0.6002359986305237 0.25595399737358093
          -0.38151100277900696 0.6875889897346497 0.6177949905395508 -0.39219099283218384 0.8063989877700806 0.44261500239372253
          -0.45544201135635376 0.6103469729423523 0.6481119990348816 0.7543249726295471 0.27763301134109497 0.5949059724807739
          -0.7036929726600647 0.26610100269317627 0.6587920188903809 -0.12705500423908234 0.5274879932403564 0.840008020401001
          -0.8430399894714355 0.38396599888801575 0.3766329884529114 -0.955947995185852 0.2830069959163666 -0.07791300117969513
          -0.6978499889373779 0.7077749967575073 -0.10981699824333191 -0.804394006729126 0.46101000905036926 -0.3747270107269287
          -0.6847929954528809 0.6785209774971008 -0.2658360004425049 -0.8734859824180603 0.35776999592781067 -0.33018699288368225
          -0.8696249723434448 0.4317069947719574 -0.23954400420188904 -0.9488270282745361 0.30094799399375916 -0.09569799900054932
          -0.9865580201148987 0.1611970067024231 -0.026822000741958618 -0.982820987701416 0.10901899635791779 0.14892299473285675
          -0.9672279953956604 0.08677099645137787 0.23862099647521973 -0.45657598972320557 0.1210319995880127 0.881413996219635
          -0.5416539907455444 0.07645700126886368 0.8371170163154602 -0.48240700364112854 0.11221399903297424 0.8687300086021423
          -0.3212459981441498 0.06960400193929672 0.9444339871406555 -0.4636099934577942 0.07149700075387955 0.8831499814987183
          -0.5137270092964172 0.057149000465869904 0.8560479879379272 -0.6391929984092712 0.2038789987564087 0.7415300011634827
          -0.4971739947795868 0.0380450002849102 0.866815984249115 -0.6341220140457153 0.05796299874782562 0.7710580229759216
          -0.9642099738121033 0.003249000059440732 0.2651210129261017 -0.8904629945755005 0.04672899842262268 0.45264899730682373
          -0.5231519937515259 0.8479470014572144 -0.08543100208044052 0.050335001200437546 0.9830309748649597 -0.17640000581741333
          0.2579970061779022 0.9013410210609436 -0.3478820025920868 0.1436229944229126 0.9550309777259827 0.25940200686454773
          0.06507699936628342 0.9255779981613159 0.37292200326919556 -0.09873799979686737 0.9213759899139404 0.37592199444770813
          -0.052538998425006866 0.9688199758529663 0.2421330064535141 -0.12118399888277054 0.8739380240440369 0.47068899869918823
          -0.22930699586868286 0.8608260154724121 0.45430898666381836 -0.27497801184654236 0.7126500010490417 0.645380973815918
          -0.39261800050735474 0.7811700105667114 0.48541200160980225 -0.6187940239906311 0.6651729941368103 0.41789698600769043
          -0.8121320009231567 0.5825740098953247 -0.0323759987950325 -0.8197839856147766 0.5625590085983276 0.10715699940919876
          -0.7903770208358765 0.5929800271987915 -0.15388299524784088 -0.3625909984111786 0.871845006942749 -0.32926398515701294
          -0.06481499969959259 0.9629759788513184 -0.2616809904575348 0.6718080043792725 0.7278980016708374 -0.137253999710083
          0.8655189871788025 0.3577229976654053 -0.35058701038360596 0.44994300603866577 0.8880019783973694 -0.0948840007185936
          -0.09881500154733658 0.9858739972114563 -0.13523000478744507 -0.3162209987640381 0.9450799822807312 -0.08262600004673004
          0.0433569997549057 0.9749469757080078 0.21817100048065186 -0.022718999534845352 0.9897469878196716 0.14101000130176544
          -0.06872700154781342 0.9809120297431946 0.18190400302410126 -0.29886698722839355 0.8916260004043579 0.34011998772621155
          -0.12493699789047241 0.947812020778656 0.29333001375198364 -0.19630999863147736 0.8523600101470947 0.4847109913825989
          -0.266184002161026 0.5689039826393127 0.7781350016593933 -0.48849400877952576 0.5330510139465332 0.6908190250396729
          -0.3077870011329651 0.5168660283088684 0.7988219857215881 -0.3389810025691986 0.5375199913978577 0.772117018699646
          -0.2923009991645813 0.516044020652771 0.8051450252532959 -0.5580430030822754 0.5766050219535828 0.5967540144920349
          -0.5976489782333374 0.48671600222587585 0.6371210217475891 -0.7399060130119324 0.499085009098053 0.4510580003261566
          -0.1626259982585907 0.5766040086746216 0.8006749749183655 -0.18956199288368225 0.685280978679657 0.7031760215759277
          0.9655860066413879 0.10714100301265717 0.23699000477790833 -0.7860339879989624 0.18833300471305847 0.5887969732284546
          -0.6028460264205933 0.2059219926595688 0.770825982093811 -0.7625669836997986 0.22376799583435059 0.6069750189781189
          -0.7868490219116211 0.41066500544548035 -0.46067699790000916 -0.6343380212783813 0.6591330170631409 -0.4039289951324463
          -0.6595360040664673 0.5636919736862183 -0.49725601077079773 -0.7191780209541321 0.441074013710022 -0.5368769764900208
          -0.8920519948005676 0.3943229913711548 -0.22079899907112122 -0.8290960192680359 0.40466800332069397 -0.3858020007610321
          -0.7003089785575867 0.5129330158233643 -0.49645400047302246 -0.9077579975128174 0.2619679868221283 -0.32763999700546265
          -0.9455230236053467 0.16993600130081177 -0.2776840031147003 -0.9744030237197876 0.16280700266361237 -0.15502400696277618
          -0.993818998336792 0.08214399963617325 -0.07466699928045273 -0.9641770124435425 0.08088699728250504 -0.2526240050792694
          -0.949508011341095 0.1037210002541542 -0.296099990606308 -0.9998199939727783 0.011490000411868095 0.01511599961668253
          -0.995369017124176 -0.030218999832868576 0.09125100076198578 -0.9833400249481201 0.013016999699175358 0.18130700290203094
          -0.3604680001735687 0.04360499978065491 0.9317520260810852 -0.5227230191230774 0.09768199920654297 0.84688800573349
          -0.49014198780059814 0.05010199919342995 0.8702009916305542 -0.634423017501831 0.07452300190925598 0.7693849802017212
          -0.6123369932174683 -0.041276998817920685 0.7895190119743347 -0.6464509963989258 0.002630000002682209 0.7629510164260864
          -0.4129529893398285 0.07722699642181396 0.9074730277061462 -0.6169160008430481 0.10222399979829788 0.7803620100021362
          -0.5765299797058105 0.048583999276161194 0.8156309723854065 -0.36664700508117676 0.03939700126647949 0.9295259714126587
          -0.6805700063705444 0.06278499960899353 0.7299879789352417 -0.7743970155715942 0.07433699816465378 0.6283180117607117
          -0.9803109765052795 -0.008221999742090702 0.19728900492191315 -0.9926819801330566 -0.10288500040769577 0.06321799755096436
          -0.9849240183830261 -0.053332000970840454 0.16456100344657898 -0.96042400598526 0.03502099961042404 0.2763330042362213
          -0.8474349975585938 0.07616300135850906 0.5254070162773132 -0.5054060220718384 0.8160300254821777 -0.28046301007270813
          0.5670549869537354 0.53432297706604 -0.6268550157546997 0.35367700457572937 0.5418840050697327 -0.7624130249023438
          0.13059300184249878 0.9278460144996643 0.34935200214385986 0.2565680146217346 0.9312319755554199 0.2588059902191162
          0.41097500920295715 0.9107750058174133 0.03986300155520439 0.18044599890708923 0.9780470132827759 0.10422399640083313
          -0.08758500218391418 0.9777699708938599 0.19051000475883484 -0.2913709878921509 0.9446409940719604 0.1508519947528839
          -0.3761110007762909 0.8729959726333618 0.3105120062828064 -0.45658600330352783 0.8758990168571472 0.15598399937152863
          -0.41829198598861694 0.8621619939804077 0.2858459949493408 -0.5862529873847961 0.7888829708099365 0.18431000411510468
          -0.7889329791069031 0.5952469706535339 0.15253500640392303 -0.905377984046936 0.41439899802207947 0.09254399687051773
          -0.5328660011291504 0.8457649946212769 -0.0270990002900362 -0.8874549865722656 0.40538299083709717 0.2192929983139038
          -0.489766001701355 0.7079780101776123 -0.5088179707527161 0.6579220294952393 0.48860400915145874 -0.573065996170044
          0.8468260169029236 0.501075029373169 -0.17835499346256256 0.31077298521995544 0.9248020052909851 -0.2194570004940033
          0.5594120025634766 0.789421021938324 -0.25273099541664124 0.6874449849128723 0.5735309720039368 -0.4455130100250244
          0.9979299902915955 0.008581999689340591 -0.06373199820518494 0.41454100608825684 0.19436399638652802 -0.8890320062637329
          0.9874899983406067 0.14272500574588776 0.06703600287437439 -0.3058309853076935 0.8753319978713989 -0.37451601028442383
          0.24605099856853485 0.9661200046539307 -0.07791999727487564 0.05331699922680855 0.9914739727973938 0.11890099942684174
          0.15151800215244293 0.9882659912109375 -0.0193099994212389 0.06945600360631943 0.9944570064544678 0.07893799990415573
          0.28327998518943787 0.9541869759559631 0.09633400291204453 0.17863500118255615 0.9758229851722717 0.12593400478363037
          -0.17521199584007263 0.9025220274925232 0.3933880031108856 0.09844200313091278 0.8617079854011536 0.4977630078792572
          0.13282300531864166 0.9374229907989502 0.3218649923801422 0.17544999718666077 0.7400959730148315 0.6492109894752502
          0.023169999942183495 0.7275649905204773 0.6856470108032227 0.0075969998724758625 0.46113601326942444 0.8872969746589661
          -0.05348199978470802 0.40266698598861694 0.9137830138206482 -0.0011470000026747584 0.43445199728012085 0.9006940126419067
          -0.22870300710201263 0.39090099930763245 0.8915669918060303 -0.40398600697517395 0.24853500723838806 0.8803560137748718
          -0.5519610047340393 0.4167880117893219 0.7222369909286499 -0.1724659949541092 0.2926099896430969 0.9405500292778015
          -0.28301000595092773 0.2776150107383728 0.9180610179901123 -0.2623879909515381 0.4013270139694214 0.8775479793548584
          -0.16156800091266632 0.23452800512313843 0.9585890173912048 -0.5895249843597412 0.4528520107269287 0.6688690185546875
          -0.5859590172767639 0.23231999576091766 0.7763239741325378 0.15043899416923523 0.5406969785690308 0.8276559710502625
          0.23319999873638153 0.34104201197624207 0.9106630086898804 -0.6227719783782959 0.009770999662578106 0.7823420166969299
          -0.5538039803504944 0.5911120176315308 -0.5864189863204956 -0.5100849866867065 0.6755840182304382 -0.5323529839515686
          -0.6552950143814087 0.3975540101528168 -0.6422920227050781 -0.5508300065994263 0.6528400182723999 -0.5199869871139526
          -0.6054360270500183 0.40583500266075134 -0.6846500039100647 -0.5791749954223633 0.4563629925251007 -0.675491988658905
          -0.8025889992713928 0.28303098678588867 -0.5251150131225586 -0.6755220293998718 0.43066298961639404 -0.5984969735145569
          -0.8535209894180298 0.1308560073375702 -0.5043590068817139 -0.9376760125160217 -0.055282000452280045 -0.34308698773384094
          -0.9005500078201294 -0.017020000144839287 -0.43441998958587646 -0.9657800197601318 -0.1514119952917099 -0.21057899296283722
          -0.5451269745826721 -0.018326999619603157 0.8381530046463013 -0.4317159950733185 -0.10164699703454971 0.8962640166282654
          -0.4846610128879547 0.02122800052165985 0.8744440078735352 -0.3662000000476837 -0.06559400260448456 0.9282220005989075
          -0.5369840264320374 0.0262449998408556 0.8431839942932129 -0.4083290100097656 -0.19825899600982666 0.8910449743270874
          -0.38500699400901794 -0.18381300568580627 0.9044240117073059 -0.35738301277160645 -0.147039994597435 0.922311007976532
          -0.46597999334335327 -0.10117900371551514 0.8789910078048706 -0.4948830008506775 -0.004286999814212322 0.8689489960670471
          -0.44229599833488464 -0.14129699766635895 0.8856689929962158 -0.2937769889831543 -0.0434579998254776 0.9548850059509277
          -0.27757400274276733 -0.11282800137996674 0.9540560245513916 -0.7357370257377625 0.08060400187969208 0.6724539995193481
          -0.6257849931716919 0.06520900130271912 0.7772650122642517 -0.5973590016365051 0.05871199816465378 0.7998219728469849
          -0.997393012046814 -0.04201300069689751 0.058667998760938644 -0.9976549744606018 -0.06785000115633011 -0.008961999788880348
          -0.9988409876823425 0.029488999396562576 0.03804999962449074 -0.9562889933586121 -0.2202340066432953 -0.19237500429153442
          -0.9918349981307983 -0.1186780035495758 0.04667900130152702 -0.9778760075569153 0.05308699980378151 0.20233899354934692
          -0.6681450009346008 0.09459999948740005 0.737991988658905 -0.9263359904289246 0.10621099919080734 0.3614160120487213
          -0.6008689999580383 0.12111499905586243 0.7901189923286438 -0.5905439853668213 0.10360299795866013 0.8003270030021667
          -0.7474759817123413 0.11073800176382065 0.654994010925293 0.9460399746894836 0.12147700041532516 -0.30042099952697754
          0.9429140090942383 0.025975000113248825 -0.3320229947566986 -0.001221999991685152 0.9969419836997986 0.07814200222492218
          0.3646570146083832 0.9233919978141785 0.11988899856805801 0.12137900292873383 0.9925050139427185 -0.014197000302374363
          0.40872201323509216 0.9021589756011963 -0.13804300129413605 0.4794459939002991 0.8629459738731384 -0.15954799950122833
          0.5548220276832581 0.8010609745979309 -0.22466200590133667 0.36449599266052246 0.928505003452301 -0.07085400074720383
          0.5069910287857056 0.8549829721450806 -0.1093830019235611 0.5131289958953857 0.8531839847564697 -0.09367699921131134
          0.3537290096282959 0.9270349740982056 -0.12442699819803238 -0.41318899393081665 0.8830469846725464 -0.2224929928779602
          -0.6243669986724854 0.7617359757423401 -0.17298699915409088 -0.6711850166320801 0.741096019744873 0.0169489998370409
          -0.6713060140609741 0.7411580085754395 0.005818000063300133 -0.794277012348175 0.6069660186767578 -0.02678300067782402
          -0.8393099904060364 0.5436540246009827 -0.00011200000153621659 -0.8388260006904602 0.4811230003833771 0.2547380030155182
          -0.6137539744377136 0.7107610106468201 0.3436940014362335 -0.6528940200805664 0.6511549949645996 -0.3869450092315674
          -0.6355850100517273 0.7339310050010681 0.23953400552272797 -0.7551509737968445 0.5410619974136353 0.37013399600982666
          -0.6090419888496399 0.5454779863357544 -0.5757790207862854 0.2842389941215515 0.817799985408783 -0.5004119873046875
          0.6619629859924316 0.6968830227851868 -0.275968998670578 0.9100130200386047 0.3171049952507019 0.26705801486968994
          0.8499460220336914 0.49001699686050415 0.19358499348163605 0.08976899832487106 0.8864759802818298 -0.4539850056171417
          -0.4758549928665161 0.856423020362854 -0.2002509981393814 0.7317309975624084 0.5236350297927856 -0.4363209903240204
          0.33381199836730957 0.8569809794425964 0.39262300729751587 -0.2499150037765503 0.7577340006828308 -0.6028119921684265
          0.24191300570964813 0.9548919796943665 -0.17221699655056 0.4026950001716614 0.8372259736061096 -0.36998599767684937
          0.1630209982395172 0.9852120280265808 0.052733998745679855 0.3567579984664917 0.9339039921760559 -0.02337699942290783
          0.852931022644043 0.5213779807090759 0.025962000712752342 0.8601549863815308 0.5097050070762634 0.01829499937593937
          0.21507099270820618 0.9217699766159058 0.3226209878921509 0.13168799877166748 0.9906669855117798 0.035186998546123505
          0.22779299318790436 0.967860996723175 0.10656300187110901 0.2678999900817871 0.91559898853302 0.2998470067977905
          0.7532399892807007 0.657600998878479 0.013802999630570412 0.3303399980068207 0.7861239910125732 0.5223829746246338
          0.3853040039539337 0.6656829714775085 0.6390680074691772 0.36584898829460144 0.7737240195274353 0.5172100067138672
          0.3469099998474121 0.5057839751243591 0.7898330092430115 0.4126259982585907 0.5591650009155273 0.7190790176391602
          0.2115810066461563 0.32284700870513916 0.9224990010261536 0.24030600488185883 0.2867240011692047 0.9273849725723267
          0.1777459979057312 0.12161099910736084 0.9765329957008362 -0.2075680047273636 0.1239050030708313 0.9703419804573059
          -0.3585300147533417 0.052893999963998795 0.932017982006073 -0.18663999438285828 -0.011485000140964985 0.9823610186576843
          -0.16174399852752686 0.02114799991250038 0.9866060018539429 0.013151999562978745 -0.03252200037240982 0.9993849992752075
          -0.46036601066589355 -0.04959600046277046 0.8863430023193359 0.3179120123386383 0.3717910051345825 0.8721830248832703
          0.4174189865589142 0.31510600447654724 0.8523319959640503 0.48149898648262024 0.06484299898147583 0.8740440011024475
          0.4311240017414093 0.13808999955654144 0.8916630148887634 0.4498920142650604 0.1701750010251999 0.8767200112342834
          -0.46775001287460327 0.5371180176734924 -0.7019360065460205 -0.43856900930404663 0.6397609710693359 -0.6311600208282471
          -0.3407430052757263 0.6745510101318359 -0.65488600730896 -0.5227370262145996 0.4951249957084656 -0.6939719915390015
          -0.5426959991455078 0.5523599982261658 -0.6327559947967529 -0.5846109986305237 0.3949280083179474 -0.7087039947509766
          -0.5910729765892029 0.4023759961128235 -0.6990900039672852 -0.5375509858131409 0.42856699228286743 -0.7262020111083984
          -0.6223459839820862 0.40968599915504456 -0.6669660210609436 -0.48458999395370483 0.4166100025177002 -0.7691609859466553
          -0.7186790108680725 0.27611300349235535 -0.6381710171699524 -0.8077139854431152 0.07050599902868271 -0.5853430032730103
          -0.6872829794883728 0.22030800580978394 -0.6921759843826294 -0.8403300046920776 -0.08326499909162521 -0.5356429815292358
          -0.816431999206543 -0.20205000042915344 -0.5409389734268188 -0.8540470004081726 -0.2375970035791397 -0.46276599168777466
          -0.837253987789154 -0.2031320035457611 -0.5076839923858643 -0.3873710036277771 -0.16415800154209137 0.9071909785270691
          -0.4592849910259247 -0.07644899934530258 0.8849930167198181 -0.2869499921798706 -0.12512600421905518 0.9497389793395996
          -0.2683129906654358 -0.22522999346256256 0.936631977558136 -0.29542800784111023 -0.21771900355815887 0.9302260279655457
          -0.3016439974308014 0.013439999893307686 0.9533259868621826 -0.2596830129623413 -0.2823309898376465 0.9235010147094727
          -0.08896300196647644 -0.23270300030708313 0.9684709906578064 -0.1979150027036667 -0.12774600088596344 0.9718589782714844