<?xml version="1.0"?>
<VTKFile type="PolyData" version="0.1" byte_order="LittleEndian" header_type="UInt32" compressor="vtkZLibDataCompressor">
  <PolyData>
    <Piece NumberOfPoints="4113" NumberOfVerts="0" NumberOfLines="0" NumberOfStrips="0" NumberOfPolys="8222">
      <PointData Normals="Normals">
        <DataArray type="Float32" Name="Normals" NumberOfComponents="3" format="ascii" RangeMin="0.9999992805241692" RangeMax="1.0000007532880675">
          -0.28636398911476135 -0.6398800015449524 0.713126003742218 -0.24603700637817383 -0.6603999733924866 0.7094630002975464
          -0.13307100534439087 -0.5952640175819397 0.7924349904060364 -0.13098099827766418 -0.6446470022201538 0.7531759738922119
          -0.4087820053100586 -0.6752189993858337 0.6139839887619019 -0.24157899618148804 -0.7365300059318542 0.6317930221557617
          -0.05143100023269653 -0.5931119918823242 0.8034759759902954 -0.10501500219106674 -0.6636599898338318 0.7406259775161743
          0.022938000038266182 -0.5880069732666016 0.8085309863090515 -0.15737399458885193 -0.7425469756126404 0.6510440111160278
          -0.2056400030851364 -0.4841200113296509 0.8504940271377563 -0.026778999716043472 -0.4638969898223877 0.8854849934577942
          -0.015894999727606773 -0.43971800804138184 0.8979949951171875 0.013590999878942966 -0.524882972240448 0.851065993309021
          -0.08865100145339966 -0.4085899889469147 0.9084029793739319 0.9428390264511108 -0.19221900403499603 0.2722240090370178
          0.7681779861450195 -0.3611220121383667 0.5286710262298584 -0.4121840000152588 -0.5772899985313416 0.7048689723014832
          -0.3769870102405548 -0.7537450194358826 0.5382829904556274 -0.5435299873352051 -0.6805859804153442 0.4913020133972168
          -0.5515779852867126 -0.587261974811554 0.5923550128936768 -0.7126100063323975 -0.5764219760894775 0.3999060094356537
          -0.29114601016044617 -0.7986800074577332 0.5266339778900146 0.5457170009613037 -0.5201320052146912 0.6570050120353699
          -0.34666600823402405 -0.5328580141067505 0.7719359993934631 0.007931999862194061 -0.7520279884338379 0.6590830087661743
          -0.12360499799251556 -0.750128984451294 0.64963698387146 0.16837400197982788 -0.6986460089683533 0.6953740119934082
          0.15660999715328217 -0.5459480285644531 0.8230519890785217 -0.13639700412750244 -0.8165969848632812 0.5608609914779663
          -0.2921440005302429 -0.4141809940338135 0.8620359897613525 -0.3814449906349182 -0.45468899607658386 0.8048340082168579
          -0.17535400390625 -0.34528300166130066 0.9219710230827332 0.07173000276088715 -0.308243989944458 0.9485989809036255
          0.07127799838781357 -0.4123010039329529 0.9082549810409546 -0.013314999639987946 -0.3097189962863922 0.9507349729537964
          0.09903000295162201 -0.5056149959564209 0.8570569753646851 -0.022235000506043434 -0.252003014087677 0.9674710035324097
          -0.14674599468708038 -0.2786389887332916 0.9491180181503296 -0.24589499831199646 -0.5588210225105286 0.7919939756393433
          -0.476936012506485 -0.7952380180358887 0.3743380010128021 -0.505944013595581 -0.7391600012779236 0.44459301233291626
          -0.6958490014076233 -0.6235859990119934 0.3562789857387543 -0.7852039933204651 -0.5480409860610962 0.28828200697898865
          -0.743681013584137 -0.5026029944419861 0.44082701206207275 -0.7017539739608765 -0.43018999695777893 0.5678719878196716
          -0.4796220064163208 -0.500773012638092 0.7205479741096497 -0.8616060018539429 -0.36987799406051636 0.34759899973869324
          -0.8788660168647766 -0.40306100249290466 0.2552190124988556 -0.3068709969520569 -0.8196390271186829 0.48375800251960754
          -0.4303880035877228 -0.4884209930896759 0.759086012840271 -0.031631000339984894 -0.8583269715309143 0.5121269822120667
          0.17399799823760986 -0.8427069783210754 0.5094799995422363 0.2747650146484375 -0.7625899910926819 0.5856289863586426
          0.2857440114021301 -0.7126619815826416 0.6406739950180054 0.22397799789905548 -0.6148390173912048 0.7561789751052856
          0.17952099442481995 -0.42292898893356323 0.8882020115852356 0.3218959867954254 -0.5718650221824646 0.7545549869537354
          -0.15483200550079346 -0.9038659930229187 0.39881500601768494 -0.5032209753990173 -0.33722299337387085 0.7956439852714539
          -0.2905290126800537 -0.29478999972343445 0.9103249907493591 -0.5702679753303528 -0.3975909948348999 0.7188299894332886
          0.08694300055503845 -0.19760499894618988 0.9764189720153809 0.15265600383281708 -0.24094000458717346 0.9584590196609497
          0.13165099918842316 -0.20304200053215027 0.9702789783477783 0.16068899631500244 -0.33564698696136475 0.928180992603302
          0.20798900723457336 -0.19559800624847412 0.9583749771118164 -0.059737998992204666 -0.21129000186920166 0.975596010684967
          -0.025093000382184982 -0.12084399908781052 0.9923539757728577 -0.035312000662088394 -0.13484099507331848 0.9902380108833313
          -0.2034119963645935 -0.13230100274085999 0.9701129794120789 -0.3748910129070282 -0.8349959850311279 0.4027880132198334
          -0.5355179905891418 -0.8323820233345032 0.14268900454044342 -0.3704879879951477 -0.8959559798240662 0.24495099484920502
          -0.2963370084762573 -0.9088150262832642 0.2936660051345825 -0.5981680154800415 -0.7085660099983215 0.3743390142917633
          -0.7091209888458252 -0.6644880175590515 0.23580299317836761 -0.8572989702224731 -0.473457008600235 0.20217899978160858
          -0.8969799876213074 -0.3971549868583679 0.19415199756622314 -0.8967779874801636 -0.4107060134410858 0.1646520048379898
          -0.7650669813156128 -0.348114013671875 0.5417460203170776 -0.9574300050735474 -0.13015900552272797 0.257656991481781
          -0.9051179885864258 -0.14512899518013 0.39962300658226013 -0.967182993888855 -0.16293099522590637 0.1949629932641983
          -0.30753201246261597 -0.8851199746131897 0.349265992641449 -0.3459160029888153 -0.8590970039367676 0.37721800804138184
          -0.018484000116586685 -0.929967999458313 0.36717599630355835 0.20313699543476105 -0.9193310141563416 0.3369959890842438
          0.33798301219940186 -0.8515589833259583 0.4007669985294342 0.28941699862480164 -0.8013420104980469 0.5235360264778137
          0.36952701210975647 -0.7838789820671082 0.4989829957485199 0.30323800444602966 -0.7579420208930969 0.5775550007820129
          0.35610198974609375 -0.6992520093917847 0.6198689937591553 0.2532539963722229 -0.4026220142841339 0.8796349763870239
          0.4428339898586273 -0.4720419943332672 0.7622830271720886 0.5663449764251709 -0.6143569946289062 0.5493810176849365
          0.44989898800849915 -0.7055699825286865 0.5475050210952759 -0.07689899951219559 -0.9765599966049194 0.20103999972343445
          -0.19950300455093384 -0.9256730079650879 0.3214449882507324 -0.17590899765491486 -0.9581480026245117 0.22585000097751617
          -0.1381939947605133 -0.984844982624054 0.10479599982500076 -0.6980810165405273 -0.2872230112552643 0.6558849811553955
          -0.6501169800758362 -0.23408299684524536 0.7228789925575256 -0.7182400226593018 -0.26052799820899963 0.6451789736747742
          -0.39796799421310425 -0.21205799281597137 0.892553985118866 -0.506991982460022 -0.19922000169754028 0.838612973690033
          -0.8068600296974182 -0.21317900717258453 0.5509359836578369 0.2373950034379959 -0.15418800711631775 0.9590979814529419
          0.10848099738359451 0.04450000077486038 0.9931020140647888 0.1643020063638687 0.045754000544548035 0.9853479862213135
          0.1719609946012497 -0.2219730019569397 0.9597700238227844 0.25057798624038696 -0.32924699783325195 0.9103890061378479
          0.36288899183273315 -0.12039799988269806 0.9240220189094543 0.3715589940547943 -0.08343300223350525 0.9246529936790466
          0.18762199580669403 -0.20555800199508667 0.9604910016059875 0.3302690088748932 -0.12390799820423126 0.9357190132141113
          0.27801498770713806 -0.17260900139808655 0.944940984249115 0.12855400145053864 -0.08147600293159485 0.988349974155426
          -0.05127900093793869 -0.0737600028514862 0.9959570169448853 -0.1917089968919754 -0.13519999384880066 0.9720950126647949
          -0.4080849885940552 -0.1039469987154007 0.9070069789886475 -0.45219099521636963 -0.8711469769477844 0.19137999415397644
          -0.4581170082092285 -0.8823260068893433 -0.10783799737691879 -0.33665400743484497 -0.9415630102157593 -0.011068999767303467
          -0.6190810203552246 -0.7802519798278809 0.08913899958133698 -0.8595839738845825 -0.4971010088920593 0.1183449998497963
          -0.7455080151557922 -0.6597530245780945 0.09457100182771683 -0.9394310116767883 -0.3078239858150482 0.15071099996566772
          -0.9254119992256165 -0.34829699993133545 0.14933499693870544 -0.9682450294494629 -0.20651200413703918 0.1409049928188324
          -0.9680309891700745 0.13058599829673767 0.21415899693965912 -0.9725340008735657 0.11203599721193314 0.20402100682258606
          -0.939786970615387 0.05842500180006027 0.3367280066013336 -0.9896119832992554 0.05518199875950813 0.13275399804115295
          -0.3483319878578186 -0.9099869728088379 0.22491900622844696 0.06471800059080124 -0.9684010148048401 0.24085600674152374
          0.34622499346733093 -0.8699650168418884 0.3511269986629486 0.219759002327919 -0.9681100249290466 0.12028300017118454
          0.49353599548339844 -0.8039429783821106 0.33180999755859375 0.577934980392456 -0.6870859861373901 0.44034498929977417
          0.3722969889640808 -0.7577289938926697 0.5359489917755127 0.6480820178985596 -0.46397799253463745 0.6039149761199951
          0.67153400182724 -0.3895159959793091 0.6303330063819885 0.5901049971580505 -0.36027899384498596 0.722478985786438
          0.4625369906425476 -0.301582008600235 0.8337309956550598 0.7576799988746643 -0.44266799092292786 0.47954699397087097
          0.049237001687288284 -0.9953089952468872 -0.08327499777078629 -0.14072300493717194 -0.9752519726753235 -0.1705310046672821
          -0.8296899795532227 -0.18051600456237793 0.5282310247421265 -0.8612239956855774 -0.13369500637054443 0.490325003862381
          -0.8439109921455383 -0.21560600399971008 0.49125099182128906 -0.8062040209770203 -0.12404099851846695 0.5784879922866821
          -0.6527069807052612 -0.11562900245189667 0.7487350106239319 -0.9272500276565552 -0.17066100239753723 0.3332909941673279
          -0.945294976234436 0.0037990000564604998 0.32619500160217285 0.15761199593544006 0.014522000215947628 0.9873939752578735
          0.10764700174331665 0.17564499378204346 0.9785500168800354 0.18900300562381744 0.1919959932565689 0.9630240201950073
          0.2228280007839203 0.19957199692726135 0.9542109966278076 0.1638060063123703 0.06960800290107727 0.98403400182724
          0.019613999873399734 0.11388599872589111 0.9933000206947327 0.2714439928531647 -0.2626579999923706 0.9259210228919983
          0.6082519888877869 -0.06164899840950966 0.7913470268249512 0.5869699716567993 -0.11400499939918518 0.8015419840812683
          0.4241339862346649 -0.17104600369930267 0.8892999887466431 0.5574579834938049 -0.07200100272893906 0.8270769715309143
          0.4899049997329712 -0.20904800295829773 0.8463410139083862 0.11094199866056442 -0.15863800048828125 0.9810839891433716
          0.1849849969148636 -0.16908599436283112 0.9680860042572021 -0.12575599551200867 -0.0009059999720193446 0.9920610189437866
          -0.11549600213766098 -0.0911640003323555 0.9891160130500793 0.08715400099754333 -0.037943001836538315 0.9954720139503479
          -0.2930470108985901 -0.2513220012187958 0.9224749803543091 -0.4546140134334564 -0.14578700065612793 0.8786759972572327
          0.029340000823140144 -0.12702399492263794 0.9914659857749939 -0.16540299355983734 -0.22149600088596344 0.9610310196876526
          -0.0034179999493062496 -0.11878199875354767 0.9929140210151672 -0.06739199906587601 -0.9815559983253479 -0.17890200018882751
          -0.228875994682312 -0.9142910242080688 -0.334197998046875 -0.4076240062713623 -0.8891919851303101 -0.2077990025281906
          -0.4685949981212616 -0.8745930194854736 -0.12452100217342377 -0.6080769896507263 -0.7938380241394043 -0.008049000054597855
          -0.26571500301361084 -0.9297909736633301 -0.2547230124473572 -0.015011000446975231 -0.957705020904541 -0.2873609960079193
          -0.7756630182266235 -0.6245759725570679 -0.09083899855613708 -0.8870180249214172 -0.4587149918079376 0.05272100120782852
          -0.9358119964599609 -0.33979400992393494 0.09378399699926376 -0.9781280159950256 -0.19282500445842743 0.07800000160932541
          -0.9970459938049316 -0.0768050029873848 0.000881000014487654 -0.9694939851760864 -0.11623000353574753 0.2158060073852539
          -0.9944139719009399 0.03258100152015686 0.10039299726486206 -0.9795629978179932 0.1278569996356964 0.15526999533176422
          -0.9897599816322327 0.1188569962978363 0.0790409967303276 -0.9820190072059631 0.09379299730062485 0.16383600234985352
          -0.9711120128631592 0.11987599730491638 0.20632599294185638 0.3436340093612671 -0.9142619967460632 0.21457000076770782
          0.4604400098323822 -0.8787490129470825 0.12568099796772003 0.33722200989723206 -0.9294270277023315 -0.14982099831104279
          0.41444799304008484 -0.9095320105552673 -0.03136900067329407 0.522695004940033 -0.8439729809761047 0.12041600048542023
          0.62813800573349 -0.7603530287742615 0.16524699330329895 0.6598150134086609 -0.6567659974098206 0.365106999874115
          0.745015025138855 -0.553259015083313 0.37263399362564087 0.8208469748497009 -0.4515649974346161 0.3497120141983032
          0.7539899945259094 -0.34567299485206604 0.5585780143737793 0.703652024269104 -0.3004699945449829 0.643887996673584
          0.732088029384613 -0.2986310124397278 0.6122639775276184 0.7865340113639832 -0.273840993642807 0.5535119771957397
          0.7397159934043884 -0.22021600604057312 0.6358649730682373 0.7153630256652832 -0.19530899822711945 0.6709030270576477
          0.6564139723777771 -0.22464099526405334 0.7201780080795288 0.7242940068244934 -0.12058500200510025 0.6788650155067444
          0.8167250156402588 -0.4353500008583069 0.37872201204299927 0.8751299977302551 -0.2262759953737259 0.4277220070362091
          0.8580880165100098 -0.33897700905799866 0.38572001457214355 -0.07995899766683578 -0.9764140248298645 -0.2005549967288971
          -0.05917099863290787 -0.9618420004844666 -0.2671320140361786 0.24851900339126587 -0.9355689883232117 -0.25089800357818604
          0.07525300234556198 -0.9549199938774109 -0.2871690094470978 0.6665639877319336 -0.7256150245666504 -0.17080900073051453
          -0.9698650240898132 -0.04911600053310394 0.23864300549030304 -0.9668740034103394 -0.1274539977312088 0.2211579978466034
          -0.930188000202179 -0.05154300108551979 0.3634459972381592 -0.8740699887275696 -0.053467001765966415 0.48284900188446045
          -0.7071930170059204 -0.18360300362110138 0.682765007019043 -0.8504030108451843 -0.13426999747753143 0.5087100267410278
          -0.995805025100708 -0.0898519977927208 0.017287999391555786 -0.12126299738883972 0.09096399694681168 0.9884439706802368
          -0.02291399985551834 0.07175199687480927 0.9971590042114258 0.13891099393367767 0.06770099699497223 0.9879879951477051
          0.13976800441741943 -0.04961000010371208 0.9889410138130188 0.18784700334072113 -0.029247000813484192 0.9817630052566528
          0.7905870079994202 -0.03126699849963188 0.6115509867668152 0.7708320021629333 -0.035656001418828964 0.6360390186309814
          0.6921600103378296 -0.07690300047397614 0.7176349759101868 0.630282998085022 -0.3542639911174774 0.6908249855041504
          0.8106430172920227 -0.20014600455760956 0.5502719879150391 0.3369080126285553 -0.25301700830459595 0.9069039821624756
          0.25117599964141846 -0.2342199981212616 0.9391760230064392 -0.020502999424934387 -0.12376999855041504 0.9920989871025085
          -0.13818800449371338 -0.008892999961972237 0.9903659820556641 0.16023199260234833 -0.17952199280261993 0.9706169962882996
          -0.04366999864578247 -0.06299900263547897 0.9970579743385315 -0.22506600618362427 -0.06378400325775146 0.9722530245780945
          -0.181194007396698 -0.08499199897050858 0.9797679781913757 0.19990600645542145 -0.019209999591112137 0.9796270132064819
          0.31881099939346313 -0.013837999664247036 0.947717010974884 -0.4278610050678253 -0.29025799036026 0.855970025062561
          -0.06879899650812149 -0.1662610024213791 0.9836789965629578 -0.2146880030632019 -0.24575600028038025 0.9452580213546753
          0.11110799759626389 -0.058014001697301865 0.9921140074729919 0.1949550062417984 -0.002741999924182892 0.9808080196380615
          0.0683630034327507 -0.0557590015232563 0.9961010217666626 0.8058980107307434 -0.5647180080413818 -0.177823007106781
          -0.1569570004940033 -0.964460015296936 -0.2125599980354309 0.6645119786262512 -0.7393869757652283 -0.10830800235271454
          -0.07406099885702133 -0.9542279839515686 -0.28976601362228394 -0.0645039975643158 -0.9005680084228516 -0.4299030005931854
          -0.21075400710105896 -0.8075190186500549 -0.5509049892425537 -0.06710200011730194 -0.8248299956321716 -0.5613849759101868
          -0.4091989994049072 -0.8565089702606201 -0.31456100940704346 -0.5053790211677551 -0.8551329970359802 -0.11549899727106094
          -0.6041820049285889 -0.7841619849205017 -0.14160899817943573 -0.6558110117912292 -0.6653940081596375 -0.35659798979759216
          -0.8804180026054382 -0.449396014213562 -0.15135200321674347 -0.5680980086326599 -0.7463539838790894 -0.34672999382019043
          -0.5876259803771973 -0.7628210186958313 -0.26981601119041443 -0.8980050086975098 -0.4397769868373871 -0.013559999875724316
          -0.9524229764938354 -0.3047400116920471 0.004792999941855669 -0.9746310114860535 -0.16301600635051727 0.15336300432682037
          -0.9982089996337891 -0.018942000344395638 -0.056749001145362854 -0.9552220106124878 0.016977999359369278 0.29540300369262695
          -0.9787830114364624 0.08111800253391266 0.1881610006093979 -0.9995869994163513 0.023612000048160553 -0.016380999237298965
          -0.9984970092773438 -0.04931800067424774 0.023892000317573547 -0.995028018951416 -0.04067400097846985 0.09090899676084518
          -0.9440240263938904 0.15035900473594666 0.29361599683761597 -0.9589909911155701 0.09712599962949753 0.26627498865127563
          -0.9961100220680237 0.05313500016927719 0.07029800117015839 -0.9746189713478088 0.15452399849891663 0.1619890034198761
          0.41359201073646545 -0.8808349967002869 -0.23037000000476837 0.5363640189170837 -0.8415700197219849 -0.06382499635219574
          0.3282490074634552 -0.8921669721603394 -0.3103080093860626 0.6770179867744446 -0.7342590093612671 0.05010300129652023
          0.7583590149879456 -0.6009129881858826 0.252577006816864 0.7724000215530396 -0.5123239755630493 0.3753960132598877
          0.9438890218734741 -0.2622449994087219 0.20075100660324097 0.9650580286979675 -0.20715899765491486 0.16046400368213654
          0.7870050072669983 -0.17510199546813965 0.5915759801864624 0.8987550139427185 -0.06891000270843506 0.4330019950866699
          0.9276260137557983 -0.06458800286054611 0.3678849935531616 0.9614859819412231 -0.09347999840974808 0.25846999883651733
          0.8564199805259705 -0.018959999084472656 0.515932023525238 0.9694240093231201 -0.03601299971342087 0.24273300170898438
          0.8220400214195251 -0.05277299880981445 0.5669779777526855 0.9422150254249573 -0.20046299695968628 0.2684119939804077
          0.9488049745559692 -0.06380800157785416 0.30935201048851013 0.17720000445842743 -0.9749090075492859 -0.13473300635814667
          0.16282500326633453 -0.9119719862937927 -0.37655699253082275 0.12439200282096863 -0.8915759921073914 -0.43545201420783997
          -0.9933180212974548 -0.06557799875736237 0.0949689969420433 -0.9633039832115173 -0.1227630004286766 0.2386929988861084
          -0.809237003326416 -0.3084560036659241 0.49998998641967773 -0.5974889993667603 -0.33880600333213806 0.7267860174179077
          -0.10382799804210663 -0.11846700310707092 0.9875149726867676 -0.044564999639987946 -0.12245199829339981 0.9914730191230774
          0.013066999614238739 -0.0774879977107048 0.9969080090522766 0.19328199326992035 0.012474000453948975 0.9810640215873718
          0.9009619951248169 -0.007284999825060368 0.43383699655532837 0.9181939959526062 -0.06792499870061874 0.39026498794555664
          0.8237379789352417 -0.08374200016260147 0.5607519745826721 0.7547670006752014 -0.3834899961948395 0.5322229862213135
          0.4655529856681824 -0.34610798954963684 0.814536988735199 0.6387959718704224 -0.4028330147266388 0.6554890275001526
          0.9278219938278198 -0.22812700271606445 0.2951349914073944 0.8149909973144531 -0.3745099902153015 0.4421899914741516
          0.13089799880981445 -0.08538500219583511 0.987712025642395 0.37011998891830444 -0.19078700244426727 0.9091820120811462
          -0.20390400290489197 0.016548000276088715 0.9788510203361511 -0.1360660046339035 0.03024500049650669 0.9902380108833313
          -0.13069500029087067 -0.043880000710487366 0.9904509782791138 -0.25670701265335083 0.03291900083422661 0.9659280180931091
          -0.22880999743938446 0.031929999589920044 0.9729470014572144 -0.1460690051317215 0.04729200154542923 0.9881430268287659
          -0.1913740038871765 -0.10370100289583206 0.9760239720344543 0.1133119985461235 0.04149699956178665 0.9926919937133789
          -0.1474599987268448 0.051235999912023544 0.9877399802207947 -0.36101800203323364 -0.34953799843788147 0.8645750284194946
          0.1301340013742447 0.06397099792957306 0.9894300103187561 -0.06458400189876556 -0.033371999859809875 0.9973539710044861
          -0.22835400700569153 -0.10931599885225296 0.9674220085144043 0.021501999348402023 -0.8816140294075012 -0.4714820086956024
          -0.11501199752092361 -0.7678940296173096 -0.6301680207252502 -0.40268000960350037 -0.7777289748191833 -0.48268699645996094
          -0.25701698660850525 -0.7293919920921326 -0.6339790225028992 -0.1630840003490448 -0.7349219918251038 -0.6582499742507935
          0.12607400119304657 -0.7893790006637573 -0.6008219718933105 -0.05162600055336952 -0.7298650145530701 -0.6816390156745911
          -0.04716299846768379 -0.7418739795684814 -0.6688780188560486 0.2545489966869354 -0.7155399918556213 -0.6505439877510071
          -0.726544976234436 -0.5162699818611145 -0.4534280002117157 -0.5282809734344482 -0.6107779741287231 -0.5898039937019348
          -0.49331900477409363 -0.7340829968452454 -0.4666459858417511 -0.9701769948005676 -0.23674200475215912 -0.052053000777959824
          -0.8872690200805664 -0.371504008769989 -0.2733829915523529 -0.98368901014328 -0.10473000258207321 0.14624300599098206
          -0.9644290208816528 0.05861600115895271 0.25776100158691406 -0.9719840288162231 0.06597600132226944 0.22559599578380585
          -0.9962080121040344 -0.08641599863767624 0.010123999789357185 -0.9999129772186279 0.00023499999952036887 -0.013183999806642532
          -0.9608579874038696 0.15821300446987152 0.22742199897766113 -0.9653549790382385 0.19665099680423737 0.17151500284671783
          -0.9986289739608765 0.052312999963760376 -0.0018469999777153134 0.32996100187301636 -0.8463990092277527 -0.4180130064487457
          0.4633130133152008 -0.83126300573349 -0.3071509897708893 0.4180710017681122 -0.8160020112991333 -0.3991970121860504
          0.6218299865722656 -0.7787200212478638 -0.08320499956607819 0.6978880167007446 -0.7045329809188843 -0.12878499925136566
          0.6157860159873962 -0.7382559776306152 -0.2752920091152191 0.7983610033988953 -0.5948429703712463 0.09370999783277512
          0.72120600938797 -0.6924530267715454 -0.019255999475717545 0.832722008228302 -0.42906299233436584 0.3499689996242523
          0.8893730044364929 -0.40504398941993713 0.21202600002288818 0.8432300090789795 -0.40121400356292725 0.3577579855918884
          0.9092879891395569 -0.2958959937095642 0.2926430106163025 0.9468430280685425 -0.1857050061225891 0.2626819908618927
          0.9854710102081299 -0.12657399475574493 0.11325100064277649 0.9219570159912109 0.09963899850845337 0.3742550015449524
          0.9111850261688232 0.05299900099635124 0.4085739850997925 0.899420976638794 -0.04163900017738342 0.43509599566459656
          0.931069016456604 -0.2324959933757782 0.28116899728775024 0.9085389971733093 0.029095999896526337 0.41678598523139954
          0.8940680027008057 0.10019099712371826 0.436583012342453 0.9444270133972168 -0.19032900035381317 0.2680149972438812
          0.9703620076179504 -0.134210005402565 0.20096099376678467 0.27179399132728577 -0.7618560194969177 -0.5879650115966797
          -0.9954599738121033 -0.09025300294160843 0.030226999893784523 -0.9786419868469238 -0.20556500554084778 -0.0016899999463930726
          -0.9176520109176636 -0.38370901346206665 0.10335300117731094 -0.6271849870681763 -0.4612640142440796 0.627593994140625
          -0.7666209936141968 -0.44629499316215515 0.46164101362228394 -0.06029399856925011 0.024111000820994377 0.99788898229599
          0.07982400059700012 0.07368200272321701 0.994081974029541 0.08265800029039383 0.19012600183486938 0.9782739877700806
          0.9626880288124084 -0.0471160002052784 0.26648199558258057 0.9528120160102844 -0.14402300119400024 0.26722100377082825
          0.8233979940414429 -0.4214160144329071 0.3800320029258728 0.6683310270309448 -0.5036150217056274 0.5474539995193481
          0.5348340272903442 -0.4070909917354584 0.7404260039329529 0.7758700251579285 -0.46608901023864746 0.42518898844718933
          0.8700129985809326 -0.3628999888896942 0.33373698592185974 0.9317759871482849 -0.3243680000305176 0.16302700340747833
          0.9290770292282104 -0.25494900345802307 0.2679849863052368 0.991087019443512 -0.064130999147892 0.11676199734210968
          0.9901909828186035 -0.0903329998254776 0.1065950021147728 0.2685050070285797 -0.0820309966802597 0.9597790241241455
          0.2172819972038269 -0.011718000285327435 0.9760389924049377 0.08016499876976013 0.08542399853467941 0.9931139945983887
          0.5421069860458374 -0.36814698576927185 0.7553730010986328 0.4961560070514679 -0.20428800582885742 0.8438569903373718
          0.35594698786735535 -0.035684000700712204 0.9338250160217285 -0.25094398856163025 0.05534199997782707 0.9664180278778076
          -0.05390100181102753 0.06921499967575073 0.9961439967155457 0.6179149746894836 0.023329000920057297 0.785897970199585
          -0.08504100143909454 0.07514200359582901 0.9935399889945984 0.6526550054550171 0.03599900007247925 0.7567989826202393
          -0.15470699965953827 0.05360500141978264 0.9865049719810486 -0.3533580005168915 0.11308600008487701 0.9286280274391174
          -0.08171900361776352 0.21838000416755676 0.9724360108375549 -0.3573929965496063 0.08963099867105484 0.9296429753303528
          -0.5090609788894653 -0.4107249975204468 0.756413996219635 -0.47108399868011475 -0.25189000368118286 0.8453590273857117
          -0.3357200026512146 -0.18093599379062653 0.9244210124015808 0.057457998394966125 0.14453700184822083 0.9878299832344055
          -0.07467299699783325 0.10774800181388855 0.9913700222969055 -0.25753700733184814 0.0024709999561309814 0.9662650227546692
          -0.41825398802757263 -0.6928099989891052 -0.5874339938163757 -0.37136998772621155 -0.5576879978179932 -0.7423400282859802
          -0.257748007774353 -0.6209380030632019 -0.7402709722518921 -0.1739320009946823 -0.6936630010604858 -0.6989849805831909
          -0.14248499274253845 -0.7760779857635498 -0.614329993724823 0.7532920241355896 -0.49426499009132385 -0.433881014585495
          0.20891299843788147 -0.7449939846992493 -0.6335129737854004 -0.1052670031785965 -0.7506260275840759 -0.6522870063781738
          0.13300000131130219 -0.7056049704551697 -0.696012020111084 -0.07253800332546234 -0.6252470016479492 -0.7770490050315857
          -0.014553000219166279 -0.5861170291900635 -0.810096025466919 0.8418390154838562 -0.39004001021385193 -0.37306299805641174
          -0.5268229842185974 -0.5357949733734131 -0.6598340272903442 -0.7145419716835022 -0.4380599856376648 -0.5454649925231934
          -0.42823800444602966 -0.5236579775810242 -0.7364739775657654 -0.437377005815506 -0.49181699752807617 -0.7528730034828186
          -0.4507969915866852 -0.5663319826126099 -0.6899639964103699 -0.9821969866752625 -0.17586000263690948 -0.06605000048875809
          -0.9204519987106323 -0.2935369908809662 -0.258078008890152 -0.9982380270957947 -0.04065899923443794 0.043226998299360275
          -0.9935969710350037 0.002443999983370304 0.11295799911022186 -0.9631590247154236 -0.2546350061893463 -0.08652400225400925
          -0.9547230005264282 -0.2747640013694763 -0.11405199766159058 -0.9936959743499756 -0.10610900074243546 -0.036184001713991165
          -0.9974589943885803 -0.06904199719429016 -0.01759999990463257 -0.953004002571106 0.10639999806880951 0.2836579978466034
          -0.9694650173187256 0.09770999848842621 0.2249249964952469 -0.9892569780349731 -0.12804999947547913 0.07052899897098541
          0.38450101017951965 -0.7331039905548096 -0.5609970092773438 0.5003079771995544 -0.7460529804229736 -0.4394280016422272
          0.8196730017662048 -0.5728110074996948 0.004993999842554331 0.7807629704475403 -0.613394021987915 -0.11898700147867203
          0.6529769897460938 -0.6926569938659668 -0.30634498596191406 0.7875059843063354 -0.5874580144882202 -0.18635599315166473
          0.7297499775886536 -0.6546720266342163 -0.19715000689029694 0.8857880234718323 -0.45852699875831604 0.07164700329303741
          0.941743016242981 -0.3042140007019043 0.14343799650669098 0.9174140095710754 0.15228499472141266 0.36764299869537354
          0.9456530213356018 0.10467000305652618 0.307871013879776 0.9766449928283691 0.01232799980789423 0.21450699865818024