<?xml version="1.0"?>
<VTKFile type="PolyData" version="0.1" byte_order="LittleEndian" header_type="UInt32" compressor="vtkZLibDataCompressor">
  <PolyData>
    <Piece NumberOfPoints="3280" NumberOfVerts="0" NumberOfLines="0" NumberOfStrips="0" NumberOfPolys="6556">
      <PointData Normals="Normals">
        <DataArray type="Float32" Name="Normals" NumberOfComponents="3" format="ascii" RangeMin="0.9999992668122885" RangeMax="1.0000007609517034">
          -0.19776999950408936 0.010894999839365482 -0.9801880121231079 -0.21008899807929993 0.052604999393224716 -0.9762660264968872
          -0.36993899941444397 0.05862800031900406 -0.9272040128707886 -0.4374539852142334 0.01192499976605177 -0.8991619944572449
          0.004987000022083521 0.005171999800950289 -0.9999740123748779 -0.2861210107803345 -0.02423200011253357 -0.9578869938850403
          -0.10867200046777725 -0.011528999544680119 -0.9940109848976135 -0.14713500440120697 0.0458419993519783 -0.9880539774894714
          -0.5543889999389648 0.06681499630212784 -0.8295720219612122 -0.5861700177192688 0.06870000064373016 -0.8072699904441833
          -0.38970398902893066 0.06446199864149094 -0.9186810255050659 -0.4129849970340729 0.06477200239896774 -0.9084309935569763
          -0.3626970052719116 -0.027139000594615936 -0.9315119981765747 -0.5313889980316162 0.028992999345064163 -0.8466320037841797
          -0.6084759831428528 0.06245800107717514 -0.7911109924316406 0.1751209944486618 0.019466999918222427 -0.9843549728393555
          0.08286400139331818 -0.05067899823188782 -0.9952710270881653 0.41980400681495667 -0.006572999991476536 -0.9075909852981567
          -0.165693998336792 -0.019352000206708908 -0.9859870076179504 -0.16025400161743164 0.04109000042080879 -0.9862200021743774
          0.18885399401187897 0.029335999861359596 -0.9815670251846313 -0.02782600000500679 0.055399999022483826 -0.9980760216712952
          -0.641821026802063 0.08751600235700607 -0.7618449926376343 -0.6029819846153259 0.08239799737930298 -0.7934880256652832
          -0.685338020324707 0.09359399974346161 -0.7221860289573669 -0.6979129910469055 0.06318599730730057 -0.7133899927139282
          -0.5877289772033691 0.06695300340652466 -0.8062829971313477 -0.4814099967479706 0.052960000932216644 -0.8748940229415894
          -0.7291229963302612 0.08369100093841553 -0.6792460083961487 -0.7494350075721741 0.0754380002617836 -0.6577659845352173
          -0.33330801129341125 0.05616600066423416 -0.9411429762840271 -0.4060949981212616 0.05332399904727936 -0.9122740030288696
          0.43463799357414246 0.09879200160503387 -0.8951699733734131 0.9481440186500549 0.016387000679969788 -0.31741899251937866
          -0.27457699179649353 -0.026112999767065048 -0.9612100124359131 -0.7160559892654419 0.06583400070667267 -0.6949309706687927
          -0.5465800166130066 0.012168999761343002 -0.8373180031776428 -0.652521014213562 0.05578700080513954 -0.7557139992713928
          -0.7179399728775024 0.07688699662685394 -0.6918449997901917 0.46058499813079834 -0.0030759999062865973 -0.8876100182533264
          0.45347899198532104 -0.05736599862575531 -0.8894190192222595 0.32533499598503113 -0.0658779963850975 -0.9433010220527649
          0.2888120114803314 -0.06219799816608429 -0.9553629755973816 -0.07098200172185898 -0.0679830014705658 -0.9951580166816711
          0.25926700234413147 -0.08208800107240677 -0.9623110294342041 0.6262050271034241 -0.06635700166225433 -0.7768290042877197
          0.6974149942398071 -0.023057999089360237 -0.7162960171699524 -0.09959500283002853 0.062428999692201614 -0.9930679798126221
          0.0850749984383583 0.07529900223016739 -0.9935250282287598 0.5609689950942993 -0.004534999839961529 -0.8278239965438843
          0.4313099980354309 0.058306001126766205 -0.9003180265426636 -0.6115800142288208 0.10409100353717804 -0.7843049764633179
          -0.8232020139694214 0.13795000314712524 -0.5507349967956543 -0.7789139747619629 0.12046200037002563 -0.615451991558075
          -0.6876929998397827 0.11173199862241745 -0.7173519730567932 -0.7825760245323181 0.08684299886226654 -0.6164680123329163
          -0.511040985584259 0.0701259970664978 -0.8566910028457642 -0.48977500200271606 0.10926699638366699 -0.8649749755859375
          -0.8346920013427734 0.12424200028181076 -0.5365189909934998 -0.8656439781188965 0.10806900262832642 -0.4888570010662079
          -0.5524790287017822 0.09299299865961075 -0.8283230066299438 -0.4714840054512024 0.10935500264167786 -0.8750680088996887
          -0.2824369966983795 0.09108299762010574 -0.9549520015716553 -0.0697920024394989 0.09008800238370895 -0.9934849739074707
          0.4135339856147766 0.06565900146961212 -0.9081180095672607 -0.40051400661468506 -0.02318499982357025 -0.9159970283508301
          -0.7557500004768372 0.08597400039434433 -0.6491919755935669 -0.6307550072669983 0.020397000014781952 -0.7757139801979065
          -0.5911250114440918 0.028131000697612762 -0.8060889840126038 -0.8085830211639404 0.10800100117921829 -0.5783849954605103
          -0.7878320217132568 0.04662499949336052 -0.6141229867935181 -0.8137789964675903 0.08598099648952484 -0.5747789740562439
          -0.7715759873390198 0.10162399709224701 -0.6279680132865906 0.646943986415863 -0.002474999986588955 -0.7625330090522766
          0.5176939964294434 -0.07243800163269043 -0.8524940013885498 -0.15909099578857422 -0.07883100211620331 -0.984112024307251
          -0.02148200012743473 -0.07575999945402145 -0.9968950152397156 0.49162301421165466 -0.09656400233507156 -0.8654379844665527
          0.43966299295425415 -0.09962300211191177 -0.8926209807395935 0.27148500084877014 -0.10700099915266037 -0.9564759731292725
          0.6864870190620422 -0.07740399986505508 -0.7230100035667419 0.7559990286827087 -0.08378200232982635 -0.6491879820823669
          0.7956699728965759 -0.06647799909114838 -0.60207200050354 0.7647759914398193 -0.012023000046610832 -0.6441839933395386
          0.8209120035171509 -0.04372800141572952 -0.5693780183792114 0.012821000069379807 0.08466800302267075 -0.9963269829750061
          0.232791006565094 0.08278600126504898 -0.9689970016479492 0.6658459901809692 -0.0015399999683722854 -0.7460880279541016
          0.7312380075454712 -0.0024049999192357063 -0.6821179986000061 0.5220460295677185 0.04762199893593788 -0.8515869975090027
          -0.8854489922523499 0.10979299992322922 -0.45158201456069946 -0.9182890057563782 0.1430799961090088 -0.3691509962081909
          -0.9512779712677002 0.13348400592803955 -0.2779420018196106 -0.774478018283844 0.12528899312019348 -0.6200699806213379
          -0.835660994052887 0.12261699885129929 -0.5353839993476868 -0.6540949940681458 0.1086060032248497 -0.74857497215271
          -0.6823189854621887 0.10332400351762772 -0.7237160205841064 -0.7596529722213745 0.12163600325584412 -0.6388520002365112
          -0.8682339787483215 0.1135760024189949 -0.48298099637031555 -0.6047760248184204 0.10384900122880936 -0.7895960211753845
          0.4305109977722168 0.11993099749088287 -0.8945819735527039 0.4134350121021271 0.11528400331735611 -0.9032059907913208
          -0.9197819828987122 0.1437699943780899 -0.3651460111141205 -0.9559540152549744 0.1106870025396347 -0.2718459963798523
          -0.9670389890670776 0.12484399974346161 -0.22192400693893433 -0.6107519865036011 0.10672999918460846 -0.7845960259437561
          -0.607804000377655 0.11310499906539917 -0.7859910130500793 -0.46247199177742004 0.12734800577163696 -0.8774409890174866
          -0.5021349787712097 0.14890499413013458 -0.851872980594635 -0.3678619861602783 0.13751600682735443 -0.919655978679657
          -0.21178799867630005 0.12805600464344025 -0.9688900113105774 0.01839499920606613 0.09676700085401535 -0.9951369762420654
          0.27991700172424316 0.07189899682998657 -0.9573280215263367 0.2808479964733124 0.08077000081539154 -0.9563480019569397
          -0.5121960043907166 -0.010610999539494514 -0.8588029742240906 -0.5680630207061768 0.008066999725997448 -0.8229460120201111
          -0.2729859948158264 -0.04334399849176407 -0.9610409736633301 -0.6698859930038452 0.03403099998831749 -0.7416840195655823
          -0.8794119954109192 0.13409000635147095 -0.45678699016571045 -0.8914049863815308 0.12684699892997742 -0.43509501218795776
          -0.815680980682373 0.12410899996757507 -0.5650330185890198 -0.8562650084495544 0.10223399847745895 -0.506318986415863
          -0.9425209760665894 0.13518300652503967 -0.3055799901485443 -0.7688639760017395 0.038152001798152924 -0.6382730007171631
          -0.8684269785881042 0.05008300021290779 -0.4932810068130493 -0.8909019827842712 0.08842799812555313 -0.4455049932003021
          0.6359339952468872 -0.10115499794483185 -0.7650859951972961 0.7145559787750244 -0.12508399784564972 -0.6883050203323364
          0.6786249876022339 -0.09473200142383575 -0.7283509969711304 0.7190719842910767 -0.11925400048494339 -0.6846269965171814
          -0.18671800196170807 -0.07540100067853928 -0.9795160293579102 0.05444199964404106 -0.07505100220441818 -0.9956920146942139
          0.6435390114784241 -0.12644800543785095 -0.7548959851264954 0.5011360049247742 -0.1284399926662445 -0.855783998966217
          0.4112679958343506 -0.11792200058698654 -0.90385502576828 0.4933139979839325 -0.1401289999485016 -0.858489990234375
          0.2908869981765747 -0.12853500247001648 -0.9480839967727661 0.4013710021972656 -0.131632998585701 -0.9064069986343384
          0.8610420227050781 -0.12499299645423889 -0.4929330050945282 0.8446320295333862 -0.10797400027513504 -0.5243459939956665
          0.9054520130157471 -0.064021997153759 -0.4195930063724518 0.8460829854011536 -0.05139100179076195 -0.5305690169334412
          0.8225950002670288 -0.012786000035703182 -0.5684829950332642 0.8488649725914001 -0.05419500172138214 -0.5258240103721619
          0.8206049799919128 -0.03133299946784973 -0.570635974407196 0.9068940281867981 -0.057583000510931015 -0.41740500926971436
          0.7636820077896118 -0.030419999733567238 -0.6448760032653809 0.7206190228462219 0.013778000138700008 -0.6931949853897095
          0.613228976726532 0.03485700115561485 -0.7891359925270081 -0.8933039903640747 0.12427599728107452 -0.4319309890270233
          -0.9091690182685852 0.11512599885463715 -0.4001980125904083 -0.9230390191078186 0.110275998711586 -0.3685620129108429
          -0.991491973400116 0.12881100177764893 -0.018727000802755356 -0.9745849967002869 0.13282300531864166 0.1803939938545227
          -0.98574298620224 0.13454599678516388 -0.10103499889373779 -0.9627569913864136 0.13784000277519226 -0.23259399831295013
          -0.8745110034942627 0.12118300050497055 -0.4696219861507416 -0.5131829977035522 0.12469799816608429 -0.8491719961166382
          -0.6831259727478027 0.12163600325584412 -0.7200989723205566 -0.787621021270752 0.13043299317359924 -0.6021959781646729
          -0.8479980230331421 0.1401599943637848 -0.5111309885978699 -0.9426509737968445 0.12657199800014496 -0.3088490068912506
          -0.9663670063018799 0.11344999819993973 -0.23079100251197815 0.42499399185180664 0.13763299584388733 -0.8946719765663147
          -0.9844430088996887 0.11270000040531158 -0.13480199873447418 -0.9931830167770386 0.10408899933099747 0.05246499925851822
          -0.6567220091819763 0.12948699295520782 -0.7429329752922058 -0.6287829875946045 0.1204719990491867 -0.7681919932365417
          -0.6465539932250977 0.15260200202465057 -0.7474489808082581 -0.48120400309562683 0.14692699909210205 -0.8642079830169678
          -0.5070819854736328 0.19019700586795807 -0.8406500220298767 -0.3484100103378296 0.16138499975204468 -0.9233450293540955
          -0.029145000502467155 0.12295299768447876 -0.991985023021698 -0.2187269926071167 0.16553199291229248 -0.9616429805755615
          0.34377700090408325 0.07636400312185287 -0.9359409809112549 0.5184620022773743 0.022780999541282654 -0.8547970056533813
          0.5081300139427185 0.039872001856565475 -0.8603569865226746 -0.5012490153312683 -0.008678999729454517 -0.8652600049972534
          -0.6268370151519775 0.04549200087785721 -0.7778210043907166 -0.3297469913959503 -0.05326399952173233 -0.9425659775733948
          -0.952347993850708 0.13113099336624146 -0.2753849923610687 -0.9117950201034546 0.14161400496959686 -0.38545501232147217
          -0.9557039737701416 0.16136999428272247 -0.2461480051279068 -0.9871969819068909 0.15948499739170074 0.002492999890819192
          -0.9596650004386902 0.168721005320549 -0.22489100694656372 -0.8990240097045898 0.15137599408626556 -0.4109030067920685
          -0.9699000120162964 0.15645399689674377 0.18658900260925293 -0.9859369993209839 0.16599799692630768 0.019328000023961067
          -0.8452879786491394 0.19118399918079376 -0.4989359974861145 -0.9124699831008911 0.1414099931716919 -0.38392800092697144
          -0.9019659757614136 0.030863000079989433 -0.4307030141353607 -0.746150016784668 -0.010621000081300735 -0.6656929850578308
          -0.6221219897270203 -0.03381599858403206 -0.7821900248527527 -0.9351680278778076 0.07198300212621689 -0.34681400656700134
          -0.941091001033783 0.11008699983358383 -0.31973299384117126 0.7844269871711731 -0.12521900236606598 -0.6074489951133728
          0.854390025138855 -0.1253100037574768 -0.5042970180511475 0.8201239705085754 -0.11119399964809418 -0.5612769722938538
          0.8264319896697998 -0.15556199848651886 -0.5411199927330017 -0.36221399903297424 -0.07258400321006775 -0.929265022277832
          -0.3178730010986328 -0.09394100308418274 -0.9434679746627808 -0.020521000027656555 -0.11334899812936783 -0.9933429956436157
          0.6348469853401184 -0.1501220017671585 -0.7579140067100525 0.7782999873161316 -0.15622299909591675 -0.6081479787826538
          0.685064971446991 -0.16896399855613708 -0.7086160182952881 0.690201997756958 -0.2040880024433136 -0.6942399740219116
          0.4746820032596588 -0.1544719934463501 -0.8664960265159607 0.1637900024652481 -0.17594200372695923 -0.970678985118866
          0.5208470225334167 -0.2057110071182251 -0.8284929990768433 0.46643298864364624 -0.22258299589157104 -0.8560940027236938
          0.9204180240631104 -0.10134699940681458 -0.3775709867477417 0.9284700155258179 -0.10264299809932709 -0.3569430112838745
          0.9863110184669495 -0.07283200323581696 -0.14793699979782104 0.9896249771118164 -0.05251200124621391 -0.13373799622058868
          0.8213729858398438 -0.010710000060498714 -0.5702900290489197 0.8799279928207397 -0.045770999044179916 -0.4728969931602478
          0.9554659724235535 -0.04430399835109711 -0.2917560040950775 0.9841729998588562 -0.08499699831008911 -0.15549799799919128
          0.8416020274162292 0.023096999153494835 -0.5396040081977844 0.7531840205192566 0.0087890001013875 -0.6577510237693787
          0.6234760284423828 0.03947100043296814 -0.7808449864387512 -0.9726139903068542 0.09144599735736847 0.2136790007352829
          -0.8996890187263489 0.08817300200462341 0.4275349974632263 -0.9869480133056641 0.14780299365520477 0.06394100189208984
          -0.8732450008392334 0.10068400204181671 0.4767659902572632 -0.9150819778442383 0.1231909990310669 0.383991003036499
          -0.8743640184402466 0.10413099825382233 0.4739669859409332 -0.9582809805870056 0.12634600698947906 0.25638699531555176
          -0.9821680188179016 0.153439000248909 -0.1086369976401329 -0.7748569846153259 0.15107999742031097 -0.6138169765472412
          -0.7957479953765869 0.14200299978256226 -0.5887449979782104 -0.8792120218276978 0.12346000224351883 -0.46015599370002747
          -0.9918590188026428 0.12528899312019348 0.02278600074350834 -0.9496039748191833 0.13527899980545044 -0.2827570140361786
          -0.9871780276298523 0.13298399746418 0.08828499913215637 -0.9518659710884094 0.12164899706840515 0.2813419997692108
          -0.9435319900512695 0.08861400187015533 0.3192099928855896 -0.6913020014762878 0.12968899309635162 -0.7108319997787476
          -0.6501020193099976 0.15782800316810608 -0.743274986743927 -0.5195440053939819 0.16919299960136414 -0.8375250101089478
          -0.6953740119934082 0.14591200649738312 -0.7036790251731873 -0.5505269765853882 0.14810200035572052 -0.8215749859809875
          -0.714684009552002 0.13048399984836578 -0.6871680021286011 -0.5775730013847351 0.18798799812793732 -0.7943990230560303
          -0.4272170066833496 0.1489199995994568 -0.8918009996414185 -0.6084709763526917 0.1874919980764389 -0.7711089849472046
          -0.3194980025291443 0.14738300442695618 -0.9360550045967102 -0.04453599825501442 0.1620970070362091 -0.9857689738273621
          0.25338301062583923 0.1507990062236786 -0.9555400013923645 -0.30785199999809265 0.16729600727558136 -0.9366099834442139
          -0.16357100009918213 0.17968299984931946 -0.9700300097465515 -0.09573400020599365 0.16009099781513214 -0.9824489951133728
          0.5999040007591248 0.11542800068855286 -0.7917010188102722 0.4272100031375885 0.1268939971923828 -0.8952040076255798
          -0.4304710030555725 -0.052820999175310135 -0.9010570049285889 -0.9729899764060974 0.1669510006904602 -0.15943099558353424
          -0.9516440033912659 0.15258799493312836 0.26662901043891907 -0.9846749901771545 0.1672160029411316 0.04954100027680397
          0.18116499483585358 0.458389014005661 -0.8700910210609436 0.8909389972686768 0.1948940008878708 -0.41017499566078186
          0.823432981967926 0.196725994348526 -0.5322179794311523 -0.9645270109176636 0.14443199336528778 0.22096699476242065
          -0.8862940073013306 0.15414799749851227 0.4367159903049469 -0.8481079936027527 0.117917001247406 0.5165339708328247
          -0.8774480223655701 0.12915299832820892 0.46195700764656067 -0.9504870176315308 0.1806270033121109 0.2528800070285797
          -0.9399160146713257 0.1563050001859665 0.30352500081062317 -0.8769869804382324 -0.017740000039339066 -0.48018598556518555
          -0.9589830040931702 0.07168900221586227 -0.27425000071525574 -0.9776999950408936 0.05829000100493431 -0.20175500214099884
          -0.9345660209655762 -0.000446999998530373 -0.35578998923301697 -0.8738759756088257 0.0029430000577121973 -0.4861389994621277
          -0.5088329911231995 -0.04282499849796295 -0.8597990274429321 -0.5347679853439331 -0.038950998336076736 -0.8441010117530823
          -0.7121000289916992 -0.05452699959278107 -0.6999580264091492 -0.5045089721679688 -0.05991699919104576 -0.8613250255584717
          -0.8484230041503906 -0.0008510000188834965 -0.5293189883232117 -0.9325770139694214 0.19258399307727814 -0.30530598759651184
          -0.9881960153579712 0.1325960010290146 -0.07673099637031555 -0.976481020450592 0.09092000126838684 -0.19549599289894104
          0.899511992931366 -0.12449800223112106 -0.41878199577331543 0.9683679938316345 -0.11478299647569656 -0.22156000137329102
          -0.2697399854660034 -0.12272699922323227 -0.955079972743988 -0.0101500004529953 -0.14037300646305084 -0.9900469779968262
          0.8926039934158325 -0.16660700738430023 -0.41892701387405396 0.8279380202293396 -0.23620399832725525 -0.5086510181427002
          0.6576899886131287 -0.253574013710022 -0.7093260288238525 0.7595700025558472 -0.2727139890193939 -0.5904920101165771
          0.6378480195999146 -0.1951020061969757 -0.7450399994850159 0.27591198682785034 -0.24640700221061707 -0.929062008857727
          0.21475400030612946 -0.20451000332832336 -0.9550169706344604 0.43722298741340637 -0.2280769944190979 -0.8699520230293274
          0.522845983505249 -0.27089598774909973 -0.8082370162010193 0.9970030188560486 -0.07645200192928314 -0.011814000084996223
          0.9849550127983093 -0.021012000739574432 0.1715259999036789 0.9813500046730042 -0.07036200165748596 0.17889000475406647
          0.9978979825973511 -0.06022699922323227 0.023933999240398407 0.9899569749832153 -0.04497300088405609 0.13402800261974335
          0.882623016834259 0.014835000038146973 -0.46984800696372986 0.919638991355896 -0.09805600345134735 -0.3803290128707886
          0.9309020042419434 -0.046813998371362686 -0.3622559905052185 0.9358400106430054 -0.023287000134587288 -0.3516550064086914
          0.9978309869766235 -0.05232499912381172 -0.03994499891996384 0.954410970211029 -0.09720399975776672 -0.28222501277923584
          0.9977959990501404 -0.02778499945998192 0.06025100126862526 0.9994530081748962 -0.02503499947488308 0.021616000682115555
          0.8562080264091492 0.023840000852942467 -0.5160809755325317 0.9154040217399597 0.037408001720905304 -0.40079501271247864
          0.912729024887085 0.016743000596761703 -0.4082210063934326 0.9092109799385071 0.02699900045990944 -0.415459007024765
          0.8285899758338928 0.05136200040578842 -0.5574949979782104 0.7416719794273376 0.048594001680612564 -0.6690000295639038
          -0.7476649880409241 0.12035900354385376 0.653078019618988 -0.7851409912109375 0.08448100090026855 0.6135280132293701
          -0.7843179702758789 0.10358799993991852 0.6116489768028259 -0.9543070197105408 0.13998499512672424 0.26401299238204956
          -0.8997960090637207 0.1303589940071106 0.41638100147247314 -0.8930150270462036 0.148485004901886 0.4248259961605072
          -0.661666989326477 0.07650300115346909 0.7458850145339966 -0.721992015838623 0.09180200099945068 0.6857849955558777
          -0.7785710096359253 0.11365099996328354 0.6171799898147583 -0.7672899961471558 0.13336500525474548 -0.6272799968719482
          -0.812379002571106 0.1322139948606491 -0.5679429769515991 -0.8298410177230835 0.1505720019340515 -0.5373010039329529
          -0.8083990216255188 0.12388800084590912 -0.5754500031471252 -0.8774250149726868 0.1219630017876625 -0.4639520049095154
          -0.9880880117416382 0.14761300384998322 -0.04351300001144409 -0.9728999733924866 0.11477799713611603 0.20072899758815765
          -0.9323279857635498 0.1167059987783432 0.34226301312446594 -0.9291099905967712 0.16733799874782562 0.32977500557899475
          -0.9098140001296997 0.14450299739837646 -0.3890480101108551 -0.8365520238876343 0.12332899868488312 0.533827006816864
          -0.8847910165786743 0.1258389949798584 0.4486759901046753 -0.8089219927787781 0.15287600457668304 0.5676910281181335
          0.7458109855651855 0.1405619978904724 -0.6511600017547607 -0.5636540055274963 0.18048499524593353 -0.806052029132843
          -0.6667129993438721 0.20290400087833405 -0.7171630263328552 -0.5604889988899231 0.197052001953125 -0.804377019405365
          0.3899199962615967 0.17012299597263336 -0.9049980044364929 -0.7923370003700256 0.1572120040655136 -0.5894799828529358
          -0.8249719738960266 0.1250550001859665 -0.551164984703064 -0.6083189845085144 0.17992199957370758 -0.7730299830436707
          -0.43354499340057373 0.21223600208759308 -0.8757820129394531 0.12856300175189972 0.1718900054693222 -0.9766910076141357
          0.5744450092315674 0.17855599522590637 -0.7988309860229492 0.4309709966182709 0.1831510066986084 -0.8835840225219727
          0.44106999039649963 0.16896000504493713 -0.8814250230789185 -0.24233999848365784 0.21198000013828278 -0.9467499852180481
          -0.33708900213241577 0.20687900483608246 -0.9184619784355164 0.09243900328874588 0.19611400365829468 -0.9762139916419983
          0.051718998700380325 0.16544599831104279 -0.9848620295524597 -0.10395599901676178 0.19283899664878845 -0.9757080078125
          0.7726719975471497 0.14158199727535248 -0.6188160181045532 -0.8599920272827148 0.14608199894428253 0.48895299434661865
          -0.9556419849395752 0.18148300051689148 0.2319760024547577 -0.8942729830741882 0.15361300110816956 0.42033201456069946
          -0.9252219796180725 0.1803559958934784 0.33382099866867065 -0.7233449816703796 0.11300300061702728 0.681177020072937
          -0.7940829992294312 0.1099419966340065 0.5977830290794373 -0.7216249704360962 0.08626700192689896 0.6868879795074463
          -0.7925660014152527 0.12204600125551224 0.5974469780921936 -0.8799149990081787 0.1827480047941208 0.4385800063610077
          -0.9678900241851807 0.11610099673271179 -0.22295700013637543 -0.9882760047912598 0.0887639969587326 -0.1242230013012886
          -0.9855520129203796 0.032131001353263855 -0.16629600524902344 -0.9941139817237854 0.0703440010547638 -0.08239100128412247
          -0.8361420035362244 -0.04944000020623207 -0.546280026435852 -0.971701979637146 -0.013163999654352665 -0.2358430027961731
          -0.9271969795227051 -0.048044998198747635 -0.3714810013771057 -0.8682630062103271 -0.06658799946308136 -0.4916149973869324
          -0.8487480282783508 -0.05283999815583229 -0.5261510014533997 -0.5001509785652161 -0.10510300099849701 -0.8595359921455383
          -0.6880390048027039 -0.09446900337934494 -0.7194989919662476 -0.5744649767875671 -0.08931499719619751 -0.8136420249938965
          -0.9645389914512634 0.13975900411605835 0.22390000522136688 -0.9899579882621765 0.14017200469970703 0.01831500045955181
          -0.9732319712638855 0.15015900135040283 -0.17398899793624878 0.9881730079650879 -0.12529799342155457 -0.08840099722146988
          0.9913920164108276 -0.08280400186777115 0.10142000019550323 -0.48367199301719666 -0.12488500028848648 -0.8662940263748169
          -0.23211699724197388 -0.16358999907970428 -0.9588329792022705 -0.0674159973859787 -0.19000400602817535 -0.9794660210609436
          0.06561599671840668 -0.2281769961118698 -0.9714059829711914 0.9214230179786682 -0.16580000519752502 -0.35141101479530334
          0.9640139937400818 -0.1392199993133545 -0.22648300230503082 0.9035620093345642 -0.2362940013408661 -0.3574090003967285
          0.8779910206794739 -0.2919529974460602 -0.3793349862098694 0.9273139834403992 -0.24642300605773926 -0.281715989112854
          0.7769680023193359 -0.3254300057888031 -0.538902997970581 0.6246979832649231 -0.36828500032424927 -0.6885629892349243
          0.3730739951133728 -0.20762600004673004 -0.9042720198631287 0.386914998292923 -0.2141530066728592 -0.8969029784202576
          0.271356999874115 -0.28127801418304443 -0.9204609990119934 0.4907020032405853 -0.2174690067768097 -0.8437529802322388
          0.45576199889183044 -0.22274400293827057 -0.8617810010910034 0.48490700125694275 -0.3547160029411316 -0.7994009852409363
          0.3868579864501953 -0.305664986371994 -0.8700050115585327 0.9507070183753967 -0.05693500116467476 0.3048180043697357
          0.9165080189704895 -0.03282099962234497 0.39866799116134644 0.9410349726676941 -0.034765999764204025 0.3365199863910675
          0.8748940229415894 -0.0075530000030994415 0.48425498604774475 0.9297419786453247 -0.06471899896860123 0.36247900128364563
          0.9522460103034973 -0.05066800117492676 0.3010979890823364 0.9341049790382385 0.004226999823004007 -0.3569740056991577
          0.989391028881073 -0.006438999902456999 -0.14513300359249115 0.9917610287666321 -0.09070999920368195 -0.09044799953699112
          0.9477459788322449 -0.01782499998807907 -0.31852900981903076 0.9774309992790222 -0.04799000173807144 0.20573100447654724
          0.9795889854431152 -0.030868999660015106 0.19862499833106995 0.9482300281524658 -0.0193099994212389 0.3169980049133301
          0.9087960124015808 0.035034000873565674 -0.41576799750328064 0.9377589821815491 0.0027729999274015427 -0.3472760021686554
          0.9537129998207092 0.0026020000223070383 -0.30070799589157104 0.9262880086898804 0.03818000108003616 -0.3748759925365448
          0.9780150055885315 0.008568000048398972 -0.2083590030670166 0.9817109704017639 0.018827000632882118 -0.1894419938325882
          0.9097219705581665 0.07475999742746353 -0.4084309935569763 0.8395699858665466 0.1292800009250641 -0.5276449918746948
          0.9833229780197144 0.028300000354647636 0.17965400218963623 0.7527850270271301 0.09498400241136551 0.6513779759407043
          -0.6301770210266113 0.10867500305175781 0.7688080072402954 -0.6530389785766602 0.06748300045728683 0.7543119788169861
          -0.8458049893379211 0.1279830038547516 0.5179129838943481 -0.7679600119590759 0.09241899847984314 0.6337950229644775
          -0.8556950092315674 0.1477860063314438 0.49592798948287964 -0.5190619826316833 0.056582000106573105 0.8528609871864319
          -0.6033369898796082 0.04828700050711632 0.7960230112075806 -0.5100679993629456 0.049949999898672104 0.8586829900741577
          -0.5398529767990112 0.07523100078105927 0.8383910059928894 -0.6509320139884949 0.0722069963812828 0.7556939721107483
          -0.6769899725914001 0.0836540013551712 0.7312219738960266 -0.9632430076599121 0.17917099595069885 0.2001499980688095
          -0.9736189842224121 0.16343599557876587 0.15922999382019043 -0.9522250294685364 0.1801680028438568 -0.2465910017490387
          -0.9769930243492126 0.21131600439548492 0.028807999566197395 -0.8880079984664917 0.12316100299358368 0.44302600622177124
          -0.9100509881973267 0.18677599728107452 -0.3700299859046936 -0.8676409721374512 0.17888200283050537 -0.4638960063457489
          -0.656952977180481 0.0853549987077713 0.7490839958190918 -0.6346309781074524 0.05915699899196625 0.7705479860305786
          -0.7618520259857178 0.10971800237894058 0.6383919715881348 -0.7482749819755554 0.11313799768686295 0.6536700129508972
          -0.8003010153770447 0.11872799694538116 0.5877270102500916 0.7563490271568298 0.13371600210666656 0.6403560042381287
          0.39826899766921997 0.22040300071239471 -0.890395998954773 -0.5429909825325012 0.2206059992313385 -0.8102430105209351
          -0.6909859776496887 0.2649880051612854 -0.6725469827651978 -0.7188040018081665 0.21619799733161926 -0.6607409715652466
          -0.7128900289535522 0.1655150055885315 -0.6814640164375305 -0.5981280207633972 0.30514198541641235 -0.7410339713096619
          -0.6852419972419739 0.16931100189685822 -0.7083629965782166 -0.8793789744377136 0.18879100680351257 -0.43709298968315125
          -0.7454429864883423 0.1607780009508133 -0.646888017654419 -0.7645429968833923 0.1636040061712265 -0.6234650015830994