<?xml version="1.0"?>
<VTKFile type="PolyData" version="0.1" byte_order="LittleEndian" header_type="UInt32" compressor="vtkZLibDataCompressor">
  <PolyData>
    <Piece NumberOfPoints="130" NumberOfVerts="0" NumberOfLines="0" NumberOfStrips="0" NumberOfPolys="256">
      <PointData Normals="Normals">
        <DataArray type="Float32" Name="Normals" NumberOfComponents="3" format="ascii" RangeMin="0.9999994801491227" RangeMax="1.0000007337066275">
          -0.006304999813437462 0.6573860049247742 -0.7535279989242554 -0.1025329977273941 0.820779025554657 -0.561968982219696
          -0.3098379969596863 0.2819550037384033 -0.9080209732055664 0.2145570069551468 0.7845860123634338 -0.5817130208015442
          0.08060300350189209 -0.005828999914228916 -0.9967290163040161 0.45929399132728577 0.22065700590610504 -0.8604410290718079
          -0.4066329896450043 0.5972380042076111 -0.6913440227508545 -0.5513619780540466 0.7939779758453369 -0.25612199306488037
          0.13495099544525146 0.9780619740486145 0.15869300067424774 -0.3647669851779938 0.8445320129394531 0.39205899834632874
          0.4557889997959137 0.8501620292663574 -0.26359298825263977 -0.287678986787796 0.9562050104141235 0.053971000015735626
          -0.33472201228141785 0.11763700097799301 -0.9349449872970581 -0.5179579854011536 0.076944999396801 -0.851938009262085
          -0.5137649774551392 -0.15926499664783478 -0.8430190086364746 -0.16501300036907196 -0.19961200654506683 -0.9658809900283813
          -0.4132849872112274 -0.16919800639152527 -0.8947439789772034 0.6804720163345337 0.664247989654541 -0.3094080090522766
          0.8542680144309998 0.298801988363266 -0.42537400126457214 0.4619460105895996 -0.2565630078315735 -0.8489890098571777
          -0.021479999646544456 -0.3350439965724945 -0.9419580101966858 0.17918699979782104 -0.38650399446487427 -0.9047139883041382
          0.8791720271110535 -0.19720199704170227 -0.43378400802612305 -0.9083700180053711 0.18379400670528412 -0.37561100721359253
          -0.5222200155258179 0.15476900339126587 -0.8386489748954773 -0.8678489923477173 0.42562898993492126 0.25627800822257996
          -0.9543939828872681 0.29498299956321716 0.04601500183343887 0.7558259963989258 0.654600977897644 0.015011000446975231
          0.38652199506759644 0.7718899846076965 0.5047640204429626 0.7370420098304749 0.6644009947776794 0.12385699898004532
          0.2460460066795349 0.4980520009994507 0.8315079808235168 -0.11811800301074982 0.8350570201873779 0.5373340249061584
          -0.8169199824333191 0.3865399956703186 0.42805200815200806 -0.8237590193748474 0.25802698731422424 0.5048199892044067
          -0.7949129939079285 0.3608990013599396 0.4877150058746338 -0.8616470098495483 0.22972699999809265 0.45253700017929077
          0.8390859961509705 0.4991759955883026 -0.2162349969148636 0.907230019569397 0.36844199895858765 -0.2029380053281784
          -0.5205540060997009 -0.20669500529766083 -0.8284329771995544 -0.3368780016899109 -0.1256439983844757 -0.9331279993057251
          -0.5098440051078796 -0.1682409942150116 -0.843654990196228 -0.5725039839744568 -0.2297379970550537 -0.7870579957962036
          -0.5542280077934265 -0.24801599979400635 -0.7945560216903687 -0.34911400079727173 -0.2994849979877472 -0.8879349827766418
          0.9733999967575073 -0.0035000001080334187 -0.22908399999141693 0.4624600112438202 -0.34991300106048584 -0.8146730065345764
          -0.25155699253082275 -0.36118099093437195 -0.89792400598526 -0.1397629976272583 -0.4137830138206482 -0.8995829820632935
          0.02848999947309494 -0.4774479866027832 -0.8781980276107788 0.3241100013256073 -0.5400779843330383 -0.7767040133476257
          0.7927070260047913 -0.4893600046634674 -0.3635140061378479 0.8907930254936218 -0.4052729904651642 0.20552699267864227
          0.8250330090522766 -0.5646719932556152 0.02157299965620041 -0.9689549803733826 -0.11116000264883041 0.22083799540996552
          -0.8942239880561829 -0.19119000434875488 -0.4047349989414215 0.9568920135498047 0.27388399839401245 -0.09667400270700455
          0.9583839774131775 0.23243799805641174 -0.1657470017671585 0.7702640295028687 0.56010502576828 0.3049199879169464
          0.7650560140609741 0.026847999542951584 0.6434040069580078 0.9716770052909851 0.21568100154399872 -0.09656599909067154
          0.9637470245361328 0.2667509913444519 -0.006039999891072512 0.06842800229787827 -0.02334200032055378 0.9973829984664917
          -0.4540869891643524 0.6056140065193176 0.6534799933433533 0.3440290093421936 -0.16952499747276306 0.9235290288925171
          0.3163599967956543 -0.1639149934053421 0.9343699812889099 0.2587209939956665 -0.21944500505924225 0.9406949877738953
          -0.9025409817695618 0.22618499398231506 0.36641600728034973 -0.9854559898376465 0.012338999658823013 0.16947999596595764
          -0.9221670031547546 -0.10349299758672714 0.37268900871276855 -0.774478018283844 -0.2504059970378876 -0.5809310078620911
          -0.33414599299430847 -0.7234110236167908 -0.6041709780693054 -0.15043500065803528 -0.7830950021743774 -0.6034330129623413
          -0.6464189887046814 -0.5950859785079956 -0.477510005235672 -0.406715989112854 -0.6262230277061462 -0.6651520133018494
          0.9837480187416077 -0.02937999926507473 -0.17713600397109985 0.005822999868541956 -0.6228139996528625 -0.7823479771614075
          0.22129400074481964 -0.8440449833869934 -0.4884839951992035 0.3949440121650696 -0.782505989074707 -0.4813559949398041
          0.5563639998435974 -0.7937049865722656 -0.24595099687576294 0.6554840207099915 -0.7550889849662781 -0.013438000343739986
          0.7571399807929993 -0.6418349742889404 0.12160199880599976 0.2833609879016876 -0.5202170014381409 0.8056550025939941
          0.34720098972320557 -0.36098799109458923 0.8655290007591248 0.6137170195579529 -0.6850770115852356 0.3924559950828552
          0.6142950057983398 -0.3961479961872101 0.6824290156364441 0.660830020904541 -0.7209439873695374 0.20867100358009338
          0.6667870283126831 -0.7437909841537476 0.04658399894833565 0.6595939993858337 -0.7484130263328552 0.06938199698925018
          0.661761999130249 -0.7397000193595886 0.12212400138378143 0.75211101770401 -0.6513239741325378 0.10052900016307831
          0.7627500295639038 -0.6404179930686951 0.08987399935722351 -0.9708399772644043 -0.22587800025939941 0.08030600100755692
          -0.9075490236282349 -0.1761299967765808 0.38122498989105225 0.3420020043849945 -0.2975490093231201 0.8913469910621643
          -0.06320200115442276 -0.28617599606513977 0.956089973449707 -0.5110200047492981 0.0535460002720356 0.857899010181427
          0.2376749962568283 -0.37672001123428345 0.895317018032074 0.27943599224090576 -0.3271639943122864 0.9027069807052612
          -0.6933599710464478 0.10396099835634232 0.713051974773407 -0.7820950150489807 -0.03728700056672096 0.6220420002937317
          -0.48236799240112305 -0.28310200572013855 0.8289600014686584 -0.4894559979438782 -0.451104998588562 0.7462819814682007
          -0.43240201473236084 -0.7124879956245422 0.552619993686676 -0.7924690246582031 -0.3797760009765625 0.4772450029850006
          -0.9056140184402466 -0.41886600852012634 0.06643400341272354 -0.2911190092563629 -0.9394279718399048 -0.18090100586414337
          0.34079501032829285 -0.9116039872169495 0.22986100614070892 -0.738431990146637 -0.6738409996032715 0.025631999596953392
          0.6467469930648804 -0.7307689785957336 0.2183929979801178 0.3914180099964142 -0.7527940273284912 0.5292379856109619
          0.29416000843048096 -0.7679280042648315 0.568996012210846 0.16949300467967987 -0.7645000219345093 0.6219419836997986
          0.14149899780750275 -0.7973849773406982 0.5866479873657227 0.4091159999370575 -0.7313249707221985 0.5457000136375427
          0.16465100646018982 -0.615257978439331 0.7709400057792664 0.11073300242424011 -0.8032749891281128 0.5852239727973938
          0.4609760046005249 -0.7923529744148254 0.3995969891548157 0.5196130275726318 -0.8359360098838806 0.1766750067472458
          -0.8977670073509216 -0.34316399693489075 0.2761400043964386 -0.902961015701294 -0.42548200488090515 0.06021500006318092
          -0.8753550052642822 -0.4670870006084442 0.12483800202608109 -0.8663129806518555 -0.4974069893360138 0.04569200053811073
          -0.8395019769668579 -0.5237320065498352 -0.14471200108528137 0.0890050008893013 -0.6757820248603821 0.7317079901695251
          -0.07134599983692169 -0.9722269773483276 0.22289800643920898 -0.6509029865264893 -0.7463139891624451 0.13907000422477722
          -0.5518860220909119 -0.8312309980392456 0.0669189989566803 -0.8230929970741272 -0.5559120178222656 0.11610099673271179
          -0.7895669937133789 -0.5854660272598267 0.18388700485229492 -0.5768470168113708 -0.8148729801177979 0.05684199929237366
          <InformationKey name="L2_NORM_RANGE" location="vtkDataArray" length="2">
            <Value index="0">
              0.99999948015
            </Value>
            <Value index="1">
              1.0000007337
            </Value>
          </InformationKey>
        </DataArray>
      </PointData>
      <CellData>
      </CellData>
      <Points>
        <DataArray type="Float32" Name="Points" NumberOfComponents="3" format="ascii" RangeMin="0.09534635867303093" RangeMax="0.11342609822506138">
          0.10420600324869156 0.03172500059008598 0.005107000004500151 0.09425400197505951 0.03243400156497955 0.008425000123679638
          0.09928900003433228 0.030900999903678894 0.0050760000012815 0.10493099689483643 0.03245899826288223 0.005840000230818987
          0.10328400135040283 0.030232999473810196 0.0041589997708797455 0.10476399958133698 0.031082000583410263 0.004819000139832497
          0.09081900119781494 0.032655999064445496 0.009147999808192253 0.09098599851131439 0.03362800180912018 0.01042299997061491
          0.10316800326108932 0.034745000302791595 0.011723999865353107 0.09365499764680862 0.03434399887919426 0.016304999589920044
          0.10549599677324295 0.03411100059747696 0.010510999709367752 0.09172099828720093 0.03422499820590019 0.01310999970883131
          0.09393499791622162 0.031780000776052475 0.008156999945640564 0.09542399644851685 0.03125400096178055 0.007127000018954277
          0.09830299764871597 0.02889700047671795 0.005652999971061945 0.10095100104808807 0.028829000890254974 0.004730999935418367
          0.09926699846982956 0.02879899926483631 0.0051020001992583275 0.10553800314664841 0.03307399898767471 0.007934999652206898
          0.10547299683094025 0.031821999698877335 0.005576000083237886 0.1042490005493164 0.029179999604821205 0.0048050000332295895
          0.10247600078582764 0.02890400029718876 0.00456599984318018 0.10331100225448608 0.02899800054728985 0.004648999776691198
          0.10500399768352509 0.029875999316573143 0.005319000221788883 0.0901779979467392 0.0320109985768795 0.009479999542236328
          0.09064900130033493 0.03219300135970116 0.008938999846577644 0.0907910019159317 0.03349699825048447 0.013387000188231468
          0.0902860015630722 0.032735999673604965 0.011641000397503376 0.10688599944114685 0.033264998346567154 0.013747000135481358
          0.10637199878692627 0.032409001141786575 0.016954999417066574 0.10737600177526474 0.03218499943614006 0.015960000455379486
          0.10268300026655197 0.03198299929499626 0.018942000344395638 0.094759002327919 0.032687000930309296 0.018510999158024788
          0.0934469997882843 0.03140399977564812 0.019061999395489693 0.0926010012626648 0.03295399993658066 0.016527000814676285
          0.09170299768447876 0.033323999494314194 0.0149940000846982 0.09305699914693832 0.03221600130200386 0.017810000106692314
          0.10604500025510788 0.033337000757455826 0.010370999574661255 0.10670799762010574 0.03296399861574173 0.012159000150859356
          0.09066999703645706 0.03101000003516674 0.009208000265061855 0.0922980010509491 0.030713999643921852 0.008849999867379665
          0.09564600139856339 0.029844999313354492 0.007327000144869089 0.09716600179672241 0.029234999790787697 0.006326000206172466
          0.09751799702644348 0.027667000889778137 0.006659000180661678 0.09623000025749207 0.019392000511288643 0.009107000194489956
          0.10726200044155121 0.03184700012207031 0.014000999741256237 0.10442499816417694 0.027898000553250313 0.005384999793022871
          0.09791699796915054 0.019096000120043755 0.008654000237584114 0.09961599856615067 0.01893400028347969 0.00834100041538477
          0.10179799795150757 0.019666999578475952 0.007797999773174524 0.10252299904823303 0.0196749996393919 0.007883000187575817
          0.10391300171613693 0.020452000200748444 0.008511999621987343 0.10641799867153168 0.02584500052034855 0.0154600003734231
          0.10496500134468079 0.022249000146985054 0.012237999588251114 0.09008999913930893 0.0308810006827116 0.010577999986708164
          0.09024400264024734 0.030764000490307808 0.009823000058531761 0.10739800333976746 0.0321200005710125 0.014825999736785889
          0.1071380004286766 0.03261600062251091 0.013875000178813934 0.10745599865913391 0.03201499953866005 0.016467999666929245
          0.10793299973011017 0.030347999185323715 0.017173999920487404 0.10767199844121933 0.03143899887800217 0.015831999480724335
          0.10775099694728851 0.031230999156832695 0.016409000381827354 0.09478099644184113 0.030365999788045883 0.021491000428795815
          0.09454300254583359 0.030964000150561333 0.021067000925540924 0.10398200154304504 0.02980099990963936 0.018619999289512634
          0.10207200050354004 0.029836999252438545 0.019349999725818634 0.0998150035738945 0.02967499941587448 0.019998999312520027
          0.09362900257110596 0.030579999089241028 0.02012299932539463 0.09348200261592865 0.029055999591946602 0.019856000319123268
          0.09331099689006805 0.021423999220132828 0.016662999987602234 0.09254399687051773 0.02043999917805195 0.01042800024151802
          0.09513299912214279 0.018828999251127243 0.009813000448048115 0.09833899885416031 0.018332000821828842 0.008926000446081161
          0.09292100369930267 0.019574999809265137 0.010459999553859234 0.09395600110292435 0.019200000911951065 0.010143999941647053
          0.1078369989991188 0.030432000756263733 0.016186000779271126 0.1008789986371994 0.019037999212741852 0.008158000186085701
          0.10144899785518646 0.01876699924468994 0.00851999968290329 0.10228099673986435 0.019252000376582146 0.008194999769330025
          0.10296499729156494 0.019620999693870544 0.008460000157356262 0.10353100299835205 0.019953999668359756 0.008717999793589115
          0.10397700220346451 0.020566999912261963 0.009267999790608883 0.10053800046443939 0.02057499997317791 0.015507999807596207
          0.10682400315999985 0.029438000172376633 0.017416000366210938 0.1044749990105629 0.021624000743031502 0.014004000462591648
          0.10754899680614471 0.029177000746130943 0.01706399954855442 0.1036669984459877 0.020390000194311142 0.009732999838888645
          0.10409899801015854 0.0212009996175766 0.013116000220179558 0.10369200259447098 0.02081199921667576 0.012258999980986118
          0.10378599911928177 0.020654000341892242 0.010456000454723835 0.1039000004529953 0.02090499922633171 0.011153999716043472
          0.10379599779844284 0.02085600048303604 0.011699999682605267 0.09214399755001068 0.022444000467658043 0.01323499996215105
          0.0928409993648529 0.020961999893188477 0.015941999852657318 0.10583800077438354 0.02962700091302395 0.01787099987268448
          0.09481299668550491 0.028996000066399574 0.021105999127030373 0.09424100071191788 0.030177999287843704 0.021268000826239586
          0.09764699637889862 0.029458999633789062 0.020401999354362488 0.09600800275802612 0.029201000928878784 0.02079400047659874
          0.09383200109004974 0.029975999146699905 0.020958999171853065 0.09370700269937515 0.02844800055027008 0.020729999989271164
          0.09360899776220322 0.026763999834656715 0.020459000021219254 0.09339699894189835 0.021789999678730965 0.017597999423742294
          0.09358499944210052 0.01962300017476082 0.01618500053882599 0.09319999814033508 0.02027300000190735 0.01611500047147274
          0.09262300282716751 0.02010899968445301 0.010928000323474407 0.09408999979496002 0.018918000161647797 0.010629000142216682
          0.09958700090646744 0.01788399927318096 0.011668999679386616 0.0930979996919632 0.019334999844431877 0.01093200035393238
          0.10342299938201904 0.019985999912023544 0.00927099958062172 0.10116700083017349 0.020089000463485718 0.01460800040513277
          0.10028699785470963 0.01979300007224083 0.01484300009906292 0.09859099984169006 0.019525999203324318 0.015035999938845634
          0.0968799963593483 0.019286999478936195 0.015150999650359154 0.10206600278615952 0.020363999530673027 0.014340000227093697
          0.09479399770498276 0.019770000129938126 0.01616000011563301 0.09570000320672989 0.019166000187397003 0.015283999964594841
          0.10263500362634659 0.020526999607682228 0.01410599984228611 0.10354000329971313 0.020891999825835228 0.013601000420749187
          0.09278199821710587 0.02037299983203411 0.01522700022906065 0.09277600049972534 0.019903000444173813 0.014535999856889248
          0.09288699924945831 0.01981399953365326 0.011397999711334705 0.09255000203847885 0.02064099907875061 0.013151000253856182
          0.09267599880695343 0.02026900090277195 0.01387100014835596 0.09414499998092651 0.01964000053703785 0.016186999157071114
          0.09560099989175797 0.018616000190377235 0.014134000055491924 0.09336599707603455 0.019202999770641327 0.014825999736785889
          0.09366100281476974 0.01888200081884861 0.012330000288784504 0.09303800016641617 0.01974399946630001 0.011915000155568123
          0.09309700131416321 0.019725000485777855 0.01271199993789196 0.09420999884605408 0.018825000151991844 0.013546999543905258
          <InformationKey name="L2_NORM_RANGE" location="vtkDataArray" length="2">
            <Value index="0">
              0.095346358673
            </Value>
            <Value index="1">
              0.11342609823
            </Value>
          </InformationKey>
        </DataArray>
      </Points>
      <Verts>
        <DataArray type="Int64" Name="connectivity" format="ascii" RangeMin="1e+299" RangeMax="-1e+299">
        </DataArray>
        <DataArray type="Int64" Name="offsets" format="ascii" RangeMin="1e+299" RangeMax="-1e+299">
        </DataArray>
      </Verts>
      <Lines>
        <DataArray type="Int64" Name="connectivity" format="ascii" RangeMin="1e+299" RangeMax="-1e+299">
        </DataArray>
        <DataArray type="Int64" Name="offsets" format="ascii" RangeMin="1e+299" RangeMax="-1e+299">
        </DataArray>
      </Lines>
      <Strips>
        <DataArray type="Int64" Name="connectivity" format="ascii" RangeMin="1e+299" RangeMax="-1e+299">
        </DataArray>
        <DataArray type="Int64" Name="offsets" format="ascii" RangeMin="1e+299" RangeMax="-1e+299">
        </DataArray>
      </Strips>
      <Polys>
        <DataArray type="Int32" Name="connectivity" format="ascii" RangeMin="0" RangeMax="129">
          2 1 0 0 1 3
          0 4 2 0 5 4
          0 3 5 7 1 6
          1 9 8 10 3 1
          8 10 1 11 1 7
          9 1 11 1 13 12
          1 2 13 1 12 6
          13 2 14 2 4 15
          16 2 15 14 2 16
          18 3 17 3 18 5
          17 3 10 4 5 19
          15 4 20 20 4 21
          21 4 19 19 5 22
          5 18 22 24 23 6
          23 7 6 12 24 6
          25 11 7 7 26 25
          7 23 26 10 8 27
          29 8 28 28 8 30
          31 8 9 30 8 31
          8 29 27 32 31 9
          9 34 33 9 11 34
          9 35 32 9 33 35
          10 36 17 37 10 27
          37 36 10 11 25 34
          24 12 38 38 12 39
          12 13 40 39 12 40
          41 13 14 40 13 41
          41 14 42 42 14 16
          20 43 15 16 15 43
          42 16 43 17 36 18
          18 36 37 37 44 18
          22 18 44 19 22 45
          21 19 45 20 46 43
          20 21 45 20 47 46
          48 47 20 49 48 20
          45 49 20 50 45 22
          22 44 51 52 50 22
          22 51 52 24 38 23
          23 53 26 23 38 54
          54 53 23 34 25 53
          26 53 25 55 27 29
          55 56 27 27 56 37
          29 28 57 30 58 28
          58 57 28 29 59 55
          60 29 57 60 59 29
          62 61 30 30 31 62
          58 30 63 63 30 64
          30 61 65 64 30 65
          32 62 31 32 66 62
          66 32 67 32 35 68
          67 32 68 33 34 53
          35 33 53 53 68 35
          37 56 44 38 69 54
          38 39 69 69 39 40
          69 40 43 43 40 42
          42 40 41 43 71 70
          43 46 71 72 69 43
          43 70 73 43 73 72
          44 56 55 59 74 44
          55 59 44 44 74 51
          50 49 45 71 46 47
          47 75 71 75 47 48
          76 48 49 76 75 48
          77 76 49 78 49 50
          78 77 49 79 78 50
          80 79 50 80 50 52
          51 82 81 81 83 51
          51 58 84 84 82 51
          74 58 51 51 83 52
          85 80 52 87 52 86
          52 89 88 52 88 85
          52 87 90 89 52 90
          86 52 83 69 91 53
          53 92 68 53 91 92
          54 69 53 58 60 57
          93 58 63 82 58 93
          84 58 82 58 74 60
          74 59 60 61 95 94
          62 95 61 65 61 96
          96 61 97 97 61 94
          66 98 62 62 98 95
          93 63 81 81 63 64
          64 65 81 81 65 96
          98 66 99 99 66 67
          101 100 67 101 67 68
          99 67 100 101 68 102
          103 102 68 92 103 68
          69 72 104 91 69 104
          70 105 73 71 105 70
          75 76 71 106 71 76
          71 106 105 72 107 104
          105 107 72 73 105 72
          76 77 78 78 106 76
          79 106 78 80 108 79
          106 79 108 80 85 108
          81 110 109 81 112 111
          96 97 81 101 81 100
          113 83 81 109 113 81
          111 110 81 115 81 114
          115 112 81 81 82 93
          81 94 100 81 97 94
          101 114 81 83 113 116
          117 86 83 116 117 83
          88 106 85 106 108 85
          87 86 117 90 87 88
          87 117 88 117 106 88
          88 89 90 119 118 91
          91 104 120 91 120 121
          91 118 92 91 121 122
          91 122 119 118 103 92
          95 98 94 94 98 99
          100 94 99 123 114 101
          102 123 101 124 115 102
          125 102 103 102 115 123
          102 125 124 118 125 103
          104 107 120 106 124 105
          126 105 124 126 107 105
          106 113 109 106 110 111
          109 110 106 111 112 106
          116 106 117 116 113 106
          106 112 124 127 107 126
          127 120 107 115 124 112
          115 114 123 118 119 125
          119 122 125 121 120 127
          129 121 128 122 121 129
          128 121 127 125 122 129
          126 124 129 124 125 129
          126 129 128 128 127 126
        </DataArray>
        <DataArray type="Int32" Name="offsets" format="ascii" RangeMin="3" RangeMax="768">
          3 6 9 12 15 18
          21 24 27 30 33 36
          39 42 45 48 51 54
          57 60 63 66 69 72
          75 78 81 84 87 90
          93 96 99 102 105 108
          111 114 117 120 123 126
          129 132 135 138 141 144
          147 150 153 156 159 162
          165 168 171 174 177 180
          183 186 189 192 195 198
          201 204 207 210 213 216
          219 222 225 228 231 234
          237 240 243 246 249 252
          255 258 261 264 267 270
          273 276 279 282 285 288
          291 294 297 300 303 306
          309 312 315 318 321 324
          327 330 333 336 339 342
          345 348 351 354 357 360
          363 366 369 372 375 378
          381 384 387 390 393 396
          399 402 405 408 411 414
          417 420 423 426 429 432
          435 438 441 444 447 450
          453 456 459 462 465 468
          471 474 477 480 483 486
          489 492 495 498 501 504
          507 510 513 516 519 522
          525 528 531 534 537 540
          543 546 549 552 555 558
          561 564 567 570 573 576
          579 582 585 588 591 594
          597 600 603 606 609 612
          615 618 621 624 627 630
          633 636 639 642 645 648
          651 654 657 660 663 666
          669 672 675 678 681 684
          687 690 693 696 699 702
          705 708 711 714 717 720
          723 726 729 732 735 738
          741 744 747 750 753 756
          759 762 765 768
        </DataArray>
      </Polys>
    </Piece>
  </PolyData>
</VTKFile>
