<?xml version="1.0"?>
<VTKFile type="PolyData" version="0.1" byte_order="LittleEndian" header_type="UInt32" compressor="vtkZLibDataCompressor">
  <PolyData>
    <Piece NumberOfPoints="362" NumberOfVerts="0" NumberOfLines="0" NumberOfStrips="0" NumberOfPolys="720">
      <PointData Normals="Normals">
        <DataArray type="Float32" Name="Normals" NumberOfComponents="3" format="ascii" RangeMin="0.9999999608742992" RangeMax="1.0000000372794629">
          0 0 1 0 0 -1
          0.1645945906639099 0 0.9863613247871399 0.3246994912624359 0 0.945817232131958
          0.47594740986824036 0 0.8794737458229065 0.6142127513885498 0 0.789140522480011
          0.7357239127159119 0 0.6772815585136414 0.8371664881706238 0 0.5469481348991394
          0.915773332118988 0 0.4016954004764557 0.9694002866744995 0 0.24548545479774475
          0.9965844750404358 0 0.08257930725812912 0.9965844750404358 0 -0.08257938921451569
          0.9694002270698547 0 -0.24548552930355072 0.915773332118988 0 -0.40169548988342285
          0.837166428565979 0 -0.5469481945037842 0.7357238531112671 0 -0.6772816181182861
          0.6142126321792603 0 -0.789140522480011 0.4759473204612732 0 -0.8794738054275513
          0.32469940185546875 0 -0.9458172917366028 0.16459450125694275 0 -0.9863613247871399
          0.15653875470161438 0.05086252838373184 0.9863613247871399 0.3088075518608093 0.10033766180276871 0.945817232131958
          0.45265287160873413 0.1470758467912674 0.8794737458229065 0.584151029586792 0.1898021697998047 0.789140522480011
          0.6997150182723999 0.22735120356082916 0.6772815585136414 0.7961926460266113 0.2586986720561981 0.5469481348991394
          0.8709521889686584 0.2829895317554474 0.4016954004764557 0.9219544529914856 0.29956117272377014 0.24548545479774475
          0.9478082060813904 0.3079615533351898 0.08257930725812912 0.9478081464767456 0.3079615533351898 -0.08257938921451569
          0.9219544529914856 0.29956117272377014 -0.24548552930355072 0.8709521889686584 0.2829895317554474 -0.40169548988342285
          0.7961925864219666 0.2586986720561981 -0.5469481945037842 0.6997149586677551 0.22735118865966797 -0.6772816181182861
          0.5841509699821472 0.1898021548986435 -0.789140522480011 0.45265281200408936 0.147075816988945 -0.8794738054275513
          0.30880746245384216 0.10033763200044632 -0.9458172917366028 0.1565386801958084 0.05086250230669975 -0.9863613247871399
          0.1331598162651062 0.0967462807893753 0.9863613247871399 0.2626873850822449 0.1908535659313202 0.945817232131958
          0.3850495219230652 0.2797548770904541 0.8794737458229065 0.4969085156917572 0.3610251843929291 0.789140522480011
          0.5952131748199463 0.4324476718902588 0.6772815585136414 0.67728191614151 0.4920741319656372 0.5469481348991394
          0.7408761978149414 0.5382781028747559 0.4016954004764557 0.7842612862586975 0.5697991847991943 0.24548545479774475
          0.8062537908554077 0.5857776999473572 0.08257930725812912 0.8062537908554077 0.5857776999473572 -0.08257938921451569
          0.7842612862586975 0.5697991847991943 -0.24548552930355072 0.7408761382102966 0.5382780432701111 -0.40169548988342285
          0.6772818565368652 0.4920741021633148 -0.5469481945037842 0.5952131152153015 0.4324476420879364 -0.6772816181182861
          0.4969084858894348 0.3610251545906067 -0.789140522480011 0.3850494623184204 0.2797548174858093 -0.8794738054275513
          0.2626873254776001 0.1908535212278366 -0.9458172917366028 0.13315975666046143 0.09674622863531113 -0.9863613247871399
          0.09674627333879471 0.1331598311662674 0.9863613247871399 0.190853551030159 0.26268741488456726 0.945817232131958
          0.2797548472881317 0.3850495517253876 0.8794737458229065 0.3610251843929291 0.4969085454940796 0.789140522480011
          0.4324476718902588 0.5952131748199463 0.6772815585136414 0.4920741021633148 0.67728191614151 0.5469481348991394
          0.5382780432701111 0.7408761978149414 0.4016954004764557 0.5697991847991943 0.7842612862586975 0.24548545479774475
          0.5857776403427124 0.8062537908554077 0.08257930725812912 0.5857776403427124 0.8062537908554077 -0.08257938921451569
          0.5697991251945496 0.7842612862586975 -0.24548552930355072 0.5382780432701111 0.7408761978149414 -0.40169548988342285
          0.49207407236099243 0.67728191614151 -0.5469481945037842 0.432447612285614 0.5952131152153015 -0.6772816181182861
          0.3610251247882843 0.4969084858894348 -0.789140522480011 0.2797548174858093 0.3850494921207428 -0.8794738054275513
          0.19085350632667542 0.2626873254776001 -0.9458172917366028 0.09674622118473053 0.13315975666046143 -0.9863613247871399
          0.050862520933151245 0.15653876960277557 0.9863613247871399 0.10033764690160751 0.3088075518608093 0.945817232131958
          0.147075816988945 0.45265287160873413 0.8794737458229065 0.1898021548986435 0.584151029586792 0.789140522480011
          0.22735117375850677 0.6997150182723999 0.6772815585136414 0.25869864225387573 0.7961926460266113 0.5469481348991394
          0.282989501953125 0.8709521889686584 0.4016954004764557 0.29956111311912537 0.9219544529914856 0.24548545479774475
          0.30796152353286743 0.9478082060813904 0.08257930725812912 0.30796152353286743 0.9478082060813904 -0.08257938921451569
          0.29956111311912537 0.9219544529914856 -0.24548552930355072 0.2829894721508026 0.8709521889686584 -0.40169548988342285
          0.25869864225387573 0.7961925864219666 -0.5469481945037842 0.22735115885734558 0.6997149586677551 -0.6772816181182861
          0.1898021250963211 0.5841509699821472 -0.789140522480011 0.1470758020877838 0.45265281200408936 -0.8794738054275513
          0.10033761709928513 0.30880749225616455 -0.9458172917366028 0.050862494856119156 0.1565386801958084 -0.9863613247871399
          -7.194658646625385e-9 0.1645945906639099 0.9863613247871399 -1.419306538963383e-8 0.3246994912624359 0.945817232131958
          -2.0804321820833138e-8 0.47594740986824036 0.8794737458229065 -2.6848091749798186e-8 0.6142127513885498 0.789140522480011
          -3.2159515939156336e-8 0.7357239127159119 0.6772815585136414 -3.659371117237242e-8 0.8371664881706238 0.5469481348991394
          -4.0029725312251685e-8 0.915773332118988 0.4016954004764557 -4.2373834219233686e-8 0.9694002866744995 0.24548545479774475
          -4.3562092599813695e-8 0.9965844750404358 0.08257930725812912 -4.3562092599813695e-8 0.9965844750404358 -0.08257938921451569
          -4.2373834219233686e-8 0.9694002270698547 -0.24548552930355072 -4.0029725312251685e-8 0.915773332118988 -0.40169548988342285
          -3.6593707619658744e-8 0.837166428565979 -0.5469481945037842 -3.215951238644266e-8 0.7357238531112671 -0.6772816181182861
          -2.6848088197084508e-8 0.6142126321792603 -0.789140522480011 -2.08043200444763e-8 0.4759473204612732 -0.8794738054275513
          -1.4193061836920151e-8 0.32469940185546875 -0.9458172917366028 -7.194654649822496e-9 0.16459450125694275 -0.9863613247871399
          -0.05086253583431244 0.15653875470161438 0.9863613247871399 -0.1003376692533493 0.3088075518608093 0.945817232131958
          -0.1470758616924286 0.45265287160873413 0.8794737458229065 -0.18980219960212708 0.584151029586792 0.789140522480011
          -0.22735123336315155 0.6997150182723999 0.6772815585136414 -0.2586987018585205 0.7961926460266113 0.5469481348991394
          -0.2829895615577698 0.8709521889686584 0.4016954004764557 -0.29956120252609253 0.9219544529914856 0.24548545479774475
          -0.3079615831375122 0.9478081464767456 0.08257930725812912 -0.3079615831375122 0.9478081464767456 -0.08257938921451569
          -0.29956120252609253 0.9219543933868408 -0.24548552930355072 -0.2829895615577698 0.8709521293640137 -0.40169548988342285
          -0.2586987018585205 0.7961925864219666 -0.5469481945037842 -0.22735121846199036 0.6997149586677551 -0.6772816181182861
          -0.18980218470096588 0.5841509699821472 -0.789140522480011 -0.1470758318901062 0.45265281200408936 -0.8794738054275513
          -0.10033764690160751 0.30880746245384216 -0.9458172917366028 -0.05086250975728035 0.1565386801958084 -0.9863613247871399
          -0.0967462807893753 0.1331598162651062 0.9863613247871399 -0.19085358083248138 0.2626873850822449 0.945817232131958
          -0.2797548770904541 0.3850495219230652 0.8794737458229065 -0.36102521419525146 0.4969085156917572 0.789140522480011
          -0.4324477016925812 0.5952131152153015 0.6772815585136414 -0.4920741617679596 0.67728191614151 0.5469481348991394
          -0.5382781028747559 0.7408761382102966 0.4016954004764557 -0.5697992444038391 0.7842612862586975 0.24548545479774475
          -0.5857776999473572 0.8062537312507629 0.08257930725812912 -0.5857776999473572 0.8062537312507629 -0.08257938921451569
          -0.5697992444038391 0.7842612266540527 -0.24548552930355072 -0.5382781028747559 0.7408761382102966 -0.40169548988342285
          -0.4920741319656372 0.6772818565368652 -0.5469481945037842 -0.4324476718902588 0.5952130556106567 -0.6772816181182861
          -0.3610251843929291 0.4969084560871124 -0.789140522480011 -0.2797548472881317 0.3850494623184204 -0.8794738054275513
          -0.1908535361289978 0.2626873254776001 -0.9458172917366028 -0.09674623608589172 0.13315974175930023 -0.9863613247871399
          -0.1331598311662674 0.09674626588821411 0.9863613247871399 -0.26268741488456726 0.190853551030159 0.945817232131958
          -0.3850495517253876 0.2797548472881317 0.8794737458229065 -0.4969085454940796 0.3610251545906067 0.789140522480011
          -0.5952131748199463 0.4324476420879364 0.6772815585136414 -0.6772819757461548 0.49207407236099243 0.5469481348991394
          -0.7408762574195862 0.5382779836654663 0.4016954004764557 -0.7842613458633423 0.5697991251945496 0.24548545479774475
          -0.8062538504600525 0.5857776403427124 0.08257930725812912 -0.8062538504600525 0.5857775807380676 -0.08257938921451569
          -0.7842613458633423 0.5697991251945496 -0.24548552930355072 -0.7408761978149414 0.5382779836654663 -0.40169548988342285
          -0.67728191614151 0.49207404255867004 -0.5469481945037842 -0.5952131152153015 0.4324475824832916 -0.6772816181182861
          -0.4969085156917572 0.3610250949859619 -0.789140522480011 -0.3850494921207428 0.27975478768348694 -0.8794738054275513
          -0.2626873552799225 0.19085349142551422 -0.9458172917366028 -0.13315975666046143 0.09674621373414993 -0.9863613247871399
          -0.15653876960277557 0.05086251348257065 0.9863613247871399 -0.3088075518608093 0.10033763200044632 0.945817232131958
          -0.4526529014110565 0.1470758020877838 0.8794737458229065 -0.584151029586792 0.1898021250963211 0.789140522480011
          -0.6997150778770447 0.2273511439561844 0.6772815585136414 -0.7961926460266113 0.25869861245155334 0.5469481348991394
          -0.8709522485733032 0.2829894423484802 0.4016954004764557 -0.9219544529914856 0.299561083316803 0.24548545479774475
          -0.9478082060813904 0.30796146392822266 0.08257930725812912 -0.9478082060813904 0.30796146392822266 -0.08257938921451569
          -0.9219544529914856 0.299561083316803 -0.24548552930355072 -0.8709521889686584 0.2829894423484802 -0.40169548988342285
          -0.7961926460266113 0.25869858264923096 -0.5469481945037842 -0.6997150182723999 0.2273511290550232 -0.6772816181182861
          -0.5841509699821472 0.1898021101951599 -0.789140522480011 -0.45265281200408936 0.14707577228546143 -0.8794738054275513
          -0.30880749225616455 0.10033760964870453 -0.9458172917366028 -0.1565386801958084 0.05086248740553856 -0.9863613247871399
          -0.1645945906639099 -1.438931729325077e-8 0.9863613247871399 -0.3246994912624359 -2.838613077926766e-8 0.945817232131958
          -0.47594740986824036 -4.1608643641666276e-8 0.8794737458229065 -0.6142127513885498 -5.369618349959637e-8 0.789140522480011
          -0.7357239127159119 -6.431903187831267e-8 0.6772815585136414 -0.8371664881706238 -7.318742234474485e-8 0.5469481348991394
          -0.915773332118988 -8.005945062450337e-8 0.4016954004764557 -0.9694002866744995 -8.474766843846737e-8 0.24548545479774475
          -0.9965844750404358 -8.712418519962739e-8 0.08257930725812912 -0.9965844750404358 -8.712418519962739e-8 -0.08257938921451569
          -0.9694002270698547 -8.474766843846737e-8 -0.24548552930355072 -0.915773332118988 -8.005945062450337e-8 -0.40169548988342285
          -0.837166428565979 -7.318741523931749e-8 -0.5469481945037842 -0.7357238531112671 -6.431902477288531e-8 -0.6772816181182861
          -0.6142126321792603 -5.3696176394169015e-8 -0.789140522480011 -0.4759473204612732 -4.16086400889526e-8 -0.8794738054275513
          -0.32469940185546875 -2.8386123673840302e-8 -0.9458172917366028 -0.16459450125694275 -1.4389309299644992e-8 -0.9863613247871399
          -0.15653875470161438 -0.050862543284893036 0.9863613247871399 -0.3088075518608093 -0.1003376841545105 0.945817232131958
          -0.45265287160873413 -0.14707587659358978 0.8794737458229065 -0.5841509699821472 -0.18980222940444946 0.789140522480011
          -0.6997150182723999 -0.22735126316547394 0.6772815585136414 -0.7961926460266113 -0.2586987614631653 0.5469481348991394
          -0.8709521889686584 -0.28298962116241455 0.4016954004764557 -0.9219543933868408 -0.2995612621307373 0.24548545479774475
          -0.9478081464767456 -0.307961642742157 0.08257930725812912 -0.9478081464767456 -0.307961642742157 -0.08257938921451569
          -0.9219543933868408 -0.2995612323284149 -0.24548552930355072 -0.8709521293640137 -0.28298959136009216 -0.40169548988342285
          -0.7961925864219666 -0.2586987316608429 -0.5469481945037842 -0.6997149586677551 -0.22735124826431274 -0.6772816181182861
          -0.5841509103775024 -0.18980219960212708 -0.789140522480011 -0.45265278220176697 -0.1470758616924286 -0.8794738054275513
          -0.30880746245384216 -0.10033766180276871 -0.9458172917366028 -0.1565386801958084 -0.05086251720786095 -0.9863613247871399
          -0.1331598162651062 -0.0967462882399559 0.9863613247871399 -0.2626873850822449 -0.19085359573364258 0.945817232131958
          -0.3850495219230652 -0.2797549068927765 0.8794737458229065 -0.4969084858894348 -0.36102524399757385 0.789140522480011
          -0.5952131152153015 -0.43244773149490356 0.6772815585136414 -0.6772818565368652 -0.492074191570282 0.5469481348991394
          -0.7408761382102966 -0.5382781624794006 0.4016954004764557 -0.7842612266540527 -0.5697992444038391 0.24548545479774475
          -0.8062537312507629 -0.585777759552002 0.08257930725812912 -0.8062537312507629 -0.585777759552002 -0.08257938921451569
          -0.7842612266540527 -0.5697992444038391 -0.24548552930355072 -0.7408761382102966 -0.5382781028747559 -0.40169548988342285
          -0.6772818565368652 -0.4920741617679596 -0.5469481945037842 -0.5952130556106567 -0.4324477016925812 -0.6772816181182861
          -0.49690842628479004 -0.3610251843929291 -0.789140522480011 -0.3850494623184204 -0.2797548472881317 -0.8794738054275513
          -0.2626872956752777 -0.1908535361289978 -0.9458172917366028 -0.13315974175930023 -0.09674623608589172 -0.9863613247871399
          -0.09674625843763351 -0.1331598311662674 0.9863613247871399 -0.1908535361289978 -0.26268741488456726 0.945817232131958
          -0.2797548174858093 -0.38504958152770996 0.8794737458229065 -0.3610251247882843 -0.496908575296402 0.789140522480011
          -0.432447612285614 -0.5952132344245911 0.6772815585136414 -0.49207404255867004 -0.6772819757461548 0.5469481348991394
          -0.5382779836654663 -0.7408762574195862 0.4016954004764557 -0.5697991251945496 -0.7842613458633423 0.24548545479774475
          -0.5857775807380676 -0.8062538504600525 0.08257930725812912 -0.5857775807380676 -0.8062538504600525 -0.08257938921451569
          -0.5697990655899048 -0.7842613458633423 -0.24548552930355072 -0.5382779836654663 -0.7408761978149414 -0.40169548988342285
          -0.49207401275634766 -0.67728191614151 -0.5469481945037842 -0.4324475824832916 -0.5952131748199463 -0.6772816181182861
          -0.3610250949859619 -0.4969085156917572 -0.789140522480011 -0.27975478768348694 -0.3850495219230652 -0.8794738054275513
          -0.19085349142551422 -0.2626873552799225 -0.9458172917366028 -0.09674620628356934 -0.13315977156162262 -0.9863613247871399
          -0.05086250603199005 -0.15653876960277557 0.9863613247871399 -0.10033761709928513 -0.3088075518608093 0.945817232131958
          -0.14707578718662262 -0.4526529014110565 0.8794737458229065 -0.18980209529399872 -0.584151029586792 0.789140522480011
          -0.227351114153862 -0.6997150778770447 0.6772815585136414 -0.25869858264923096 -0.7961927056312561 0.5469481348991394
          -0.28298941254615784 -0.8709522485733032 0.4016954004764557 -0.2995610535144806 -0.9219545125961304 0.24548545479774475
          -0.30796143412590027 -0.9478082060813904 0.08257930725812912 -0.30796143412590027 -0.9478082060813904 -0.08257938921451569
          -0.2995610535144806 -0.9219544529914856 -0.24548552930355072 -0.28298941254615784 -0.8709521889686584 -0.40169548988342285
          -0.25869855284690857 -0.7961926460266113 -0.5469481945037842 -0.2273510992527008 -0.6997150182723999 -0.6772816181182861
          -0.18980208039283752 -0.5841509699821472 -0.789140522480011 -0.14707575738430023 -0.45265281200408936 -0.8794738054275513
          -0.10033759474754333 -0.30880749225616455 -0.9458172917366028 -0.05086247995495796 -0.1565386801958084 -0.9863613247871399
          2.1583975495786945e-8 -0.1645945906639099 0.9863613247871399 4.257919528072307e-8 -0.3246994912624359 0.945817232131958
          6.241296546249941e-8 -0.47594740986824036 0.8794737458229065 8.054427524939456e-8 -0.6142127513885498 0.789140522480011
          9.647854426475533e-8 -0.7357239127159119 0.6772815585136414 1.0978113351711727e-7 -0.8371664881706238 0.5469481348991394
          1.200891830421824e-7 -0.915773332118988 0.4016954004764557 1.271214955522737e-7 -0.9694002866744995 0.24548545479774475
          1.306862742467274e-7 -0.9965844750404358 0.08257930725812912 1.306862742467274e-7 -0.9965844750404358 -0.08257938921451569
          1.271214955522737e-7 -0.9694002270698547 -0.24548552930355072 1.200891688313277e-7 -0.915773332118988 -0.40169548988342285
          1.0978112641168991e-7 -0.837166428565979 -0.5469481945037842 9.647853715932797e-8 -0.7357238531112671 -0.6772816181182861
          8.05442681439672e-8 -0.6142126321792603 -0.789140522480011 6.241295835707206e-8 -0.4759473204612732 -0.8794738054275513
          4.2579184622582034e-8 -0.32469940185546875 -0.9458172917366028 2.1583964837645908e-8 -0.16459450125694275 -0.9863613247871399
          0.05086255073547363 -0.15653875470161438 0.9863613247871399 0.10033769905567169 -0.3088075518608093 0.945817232131958
          0.14707590639591217 -0.45265287160873413 0.8794737458229065 0.18980225920677185 -0.5841509699821472 0.789140522480011
          0.22735129296779633 -0.6997150182723999 0.6772815585136414 0.25869879126548767 -0.7961925864219666 0.5469481348991394
          0.28298965096473694 -0.8709521889686584 0.4016954004764557 0.2995612919330597 -0.9219543933868408 0.24548545479774475
          0.30796167254447937 -0.9478081464767456 0.08257930725812912 0.30796167254447937 -0.9478081464767456 -0.08257938921451569
          0.2995612919330597 -0.9219543933868408 -0.24548552930355072 0.28298962116241455 -0.8709521293640137 -0.40169548988342285
          0.2586987614631653 -0.7961925864219666 -0.5469481945037842 0.22735127806663513 -0.6997149586677551 -0.6772816181182861
          0.18980222940444946 -0.5841509103775024 -0.789140522480011 0.14707587659358978 -0.45265278220176697 -0.8794738054275513
          0.1003376767039299 -0.30880746245384216 -0.9458172917366028 0.050862520933151245 -0.1565386801958084 -0.9863613247871399
          0.0967462956905365 -0.1331598162651062 0.9863613247871399 0.19085361063480377 -0.2626873552799225 0.945817232131958
          0.2797549366950989 -0.3850494921207428 0.8794737458229065 0.36102524399757385 -0.4969084858894348 0.789140522480011
          0.43244776129722595 -0.5952131152153015 0.6772815585136414 0.49207422137260437 -0.6772818565368652 0.5469481348991394
          0.5382781624794006 -0.7408761382102966 0.4016954004764557 0.5697993040084839 -0.7842612266540527 0.24548545479774475
          0.5857778191566467 -0.8062537312507629 0.08257930725812912 0.585777759552002 -0.8062536716461182 -0.08257938921451569
          0.5697993040084839 -0.784261167049408 -0.24548552930355072 0.5382781624794006 -0.7408760786056519 -0.40169548988342285
          0.492074191570282 -0.6772817969322205 -0.5469481945037842 0.43244773149490356 -0.5952130556106567 -0.6772816181182861
          0.36102521419525146 -0.49690842628479004 -0.789140522480011 0.2797548770904541 -0.385049432516098 -0.8794738054275513
          0.190853551030159 -0.2626872956752777 -0.9458172917366028 0.09674624353647232 -0.13315974175930023 -0.9863613247871399
          0.1331598460674286 -0.09674625098705292 0.9863613247871399 0.26268741488456726 -0.1908535212278366 0.945817232131958
          0.38504958152770996 -0.2797548174858093 0.8794737458229065 0.49690860509872437 -0.3610250949859619 0.789140522480011
          0.5952132344245911 -0.4324475824832916 0.6772815585136414 0.6772819757461548 -0.49207401275634766 0.5469481348991394
          0.7408762574195862 -0.5382779240608215 0.4016954004764557 0.7842614054679871 -0.5697990655899048 0.24548545479774475
          0.8062539100646973 -0.5857775211334229 0.08257930725812912 0.8062539100646973 -0.5857775211334229 -0.08257938921451569
          0.7842613458633423 -0.5697990655899048 -0.24548552930355072 0.7408762574195862 -0.5382779240608215 -0.40169548988342285
          0.6772819757461548 -0.49207398295402527 -0.5469481945037842 0.5952131748199463 -0.43244755268096924 -0.6772816181182861
          0.4969085454940796 -0.3610250651836395 -0.789140522480011 0.3850495219230652 -0.27975475788116455 -0.8794738054275513
          0.2626873552799225 -0.19085347652435303 -0.9458172917366028 0.13315977156162262 -0.09674620628356934 -0.9863613247871399
          0.15653876960277557 -0.05086250230669975 0.9863613247871399 0.3088075816631317 -0.10033760219812393 0.945817232131958
          0.4526529014110565 -0.14707575738430023 0.8794737458229065 0.584151029586792 -0.18980208039283752 0.789140522480011
          0.6997150778770447 -0.2273510843515396 0.6772815585136414 0.7961927056312561 -0.25869855284690857 0.5469481348991394
          0.8709522485733032 -0.28298938274383545 0.4016954004764557 0.9219545125961304 -0.2995609939098358 0.24548545479774475
          0.9478082060813904 -0.3079613745212555 0.08257930725812912 0.9478082060813904 -0.3079613745212555 -0.08257938921451569
          0.9219544529914856 -0.2995609939098358 -0.24548552930355072 0.8709521889686584 -0.28298938274383545 -0.40169548988342285
          0.7961926460266113 -0.2586985230445862 -0.5469481945037842 0.6997150182723999 -0.22735105454921722 -0.6772816181182861
          0.5841509699821472 -0.18980205059051514 -0.789140522480011 0.45265284180641174 -0.14707574248313904 -0.8794738054275513
          0.30880749225616455 -0.10033757984638214 -0.9458172917366028 0.1565386950969696 -0.050862472504377365 -0.9863613247871399
          <InformationKey name="L2_NORM_RANGE" location="vtkDataArray" length="2">
            <Value index="0">
              0.99999996087
            </Value>
            <Value index="1">
              1.0000000373
            </Value>
          </InformationKey>
        </DataArray>
      </PointData>
      <CellData>
      </CellData>
      <Points>
        <DataArray type="Float32" Name="Array 112CDCA0" NumberOfComponents="3" format="ascii" RangeMin="0.4999999804371496" RangeMax="0.5000000186397314">
          0 0 0.5 0 0 -0.5
          0.08229729533195496 0 0.49318066239356995 0.16234974563121796 0 0.472908616065979
          0.23797370493412018 0 0.43973687291145325 0.3071063756942749 0 0.3945702612400055
          0.36786195635795593 0 0.3386407792568207 0.4185832440853119 0 0.2734740674495697
          0.457886666059494 0 0.20084770023822784 0.48470014333724976 0 0.12274272739887238
          0.4982922375202179 0 0.04128965362906456 0.4982922375202179 0 -0.04128969460725784
          0.48470011353492737 0 -0.12274276465177536 0.457886666059494 0 -0.20084774494171143
          0.4185832142829895 0 -0.2734740972518921 0.36786192655563354 0 -0.33864080905914307
          0.3071063160896301 0 -0.3945702612400055 0.2379736602306366 0 -0.43973690271377563
          0.16234970092773438 0 -0.4729086458683014 0.08229725062847137 0 -0.49318066239356995
          0.07826937735080719 0.02543126419186592 0.49318066239356995 0.15440377593040466 0.050168830901384354 0.472908616065979
          0.22632643580436707 0.0735379233956337 0.43973687291145325 0.292075514793396 0.09490108489990234 0.3945702612400055
          0.34985750913619995 0.11367560178041458 0.3386407792568207 0.39809632301330566 0.12934933602809906 0.2734740674495697
          0.4354760944843292 0.1414947658777237 0.20084770023822784 0.4609772264957428 0.14978058636188507 0.12274272739887238
          0.4739041030406952 0.1539807766675949 0.04128965362906456 0.4739040732383728 0.1539807766675949 -0.04128969460725784
          0.4609772264957428 0.14978058636188507 -0.12274276465177536 0.4354760944843292 0.1414947658777237 -0.20084774494171143
          0.3980962932109833 0.12934933602809906 -0.2734740972518921 0.34985747933387756 0.11367559432983398 -0.33864080905914307
          0.2920754849910736 0.09490107744932175 -0.3945702612400055 0.22632640600204468 0.0735379084944725 -0.43973690271377563
          0.15440373122692108 0.05016881600022316 -0.4729086458683014 0.0782693400979042 0.025431251153349876 -0.49318066239356995
          0.0665799081325531 0.04837314039468765 0.49318066239356995 0.13134369254112244 0.0954267829656601 0.472908616065979
          0.1925247609615326 0.13987743854522705 0.43973687291145325 0.2484542578458786 0.18051259219646454 0.3945702612400055
          0.29760658740997314 0.2162238359451294 0.3386407792568207 0.338640958070755 0.2460370659828186 0.2734740674495697
          0.3704380989074707 0.26913905143737793 0.20084770023822784 0.39213064312934875 0.28489959239959717 0.12274272739887238
          0.40312689542770386 0.2928888499736786 0.04128965362906456 0.40312689542770386 0.2928888499736786 -0.04128969460725784
          0.39213064312934875 0.28489959239959717 -0.12274276465177536 0.3704380691051483 0.26913902163505554 -0.20084774494171143
          0.3386409282684326 0.2460370510816574 -0.2734740972518921 0.29760655760765076 0.2162238210439682 -0.33864080905914307
          0.2484542429447174 0.18051257729530334 -0.3945702612400055 0.1925247311592102 0.13987740874290466 -0.43973690271377563
          0.13134366273880005 0.0954267606139183 -0.4729086458683014 0.06657987833023071 0.04837311431765556 -0.49318066239356995
          0.048373136669397354 0.0665799155831337 0.49318066239356995 0.0954267755150795 0.13134370744228363 0.472908616065979
          0.13987742364406586 0.1925247758626938 0.43973687291145325 0.18051259219646454 0.2484542727470398 0.3945702612400055
          0.2162238359451294 0.29760658740997314 0.3386407792568207 0.2460370510816574 0.338640958070755 0.2734740674495697
          0.26913902163505554 0.3704380989074707 0.20084770023822784 0.28489959239959717 0.39213064312934875 0.12274272739887238
          0.2928888201713562 0.40312689542770386 0.04128965362906456 0.2928888201713562 0.40312689542770386 -0.04128969460725784
          0.2848995625972748 0.39213064312934875 -0.12274276465177536 0.26913902163505554 0.3704380989074707 -0.20084774494171143
          0.24603703618049622 0.338640958070755 -0.2734740972518921 0.216223806142807 0.29760655760765076 -0.33864080905914307
          0.18051256239414215 0.2484542429447174 -0.3945702612400055 0.13987740874290466 0.1925247460603714 -0.43973690271377563
          0.09542675316333771 0.13134366273880005 -0.4729086458683014 0.048373110592365265 0.06657987833023071 -0.49318066239356995
          0.025431260466575623 0.07826938480138779 0.49318066239356995 0.05016882345080376 0.15440377593040466 0.472908616065979
          0.0735379084944725 0.22632643580436707 0.43973687291145325 0.09490107744932175 0.292075514793396 0.3945702612400055
          0.11367558687925339 0.34985750913619995 0.3386407792568207 0.12934932112693787 0.39809632301330566 0.2734740674495697
          0.1414947509765625 0.4354760944843292 0.20084770023822784 0.14978055655956268 0.4609772264957428 0.12274272739887238
          0.15398076176643372 0.4739041030406952 0.04128965362906456 0.15398076176643372 0.4739041030406952 -0.04128969460725784
          0.14978055655956268 0.4609772264957428 -0.12274276465177536 0.1414947360754013 0.4354760944843292 -0.20084774494171143
          0.12934932112693787 0.3980962932109833 -0.2734740972518921 0.11367557942867279 0.34985747933387756 -0.33864080905914307
          0.09490106254816055 0.2920754849910736 -0.3945702612400055 0.0735379010438919 0.22632640600204468 -0.43973690271377563
          0.05016880854964256 0.15440374612808228 -0.4729086458683014 0.025431247428059578 0.0782693400979042 -0.49318066239356995
          -3.5973293233126924e-9 0.08229729533195496 0.49318066239356995 -7.096532694816915e-9 0.16234974563121796 0.472908616065979
          -1.0402160910416569e-8 0.23797370493412018 0.43973687291145325 -1.3424045874899093e-8 0.3071063756942749 0.3945702612400055
          -1.6079757969578168e-8 0.36786195635795593 0.3386407792568207 -1.829685558618621e-8 0.4185832440853119 0.2734740674495697
          -2.0014862656125842e-8 0.457886666059494 0.20084770023822784 -2.1186917109616843e-8 0.48470014333724976 0.12274272739887238
          -2.1781046299906848e-8 0.4982922375202179 0.04128965362906456 -2.1781046299906848e-8 0.4982922375202179 -0.04128969460725784