<?xml version="1.0"?>
<VTKFile type="PolyData" version="0.1" byte_order="LittleEndian" header_type="UInt32" compressor="vtkZLibDataCompressor">
  <PolyData>
    <Piece NumberOfPoints="212" NumberOfVerts="0" NumberOfLines="0" NumberOfStrips="0" NumberOfPolys="424">
      <PointData Normals="Normals">
        <DataArray type="Float32" Name="Normals" NumberOfComponents="3" format="ascii" RangeMin="0.9999993340983292" RangeMax="1.0000006433443729">
          0.5891630053520203 -0.8080139756202698 0.0003279999946244061 0.3783639967441559 -0.9071750044822693 0.1840510070323944
          -0.13378700613975525 -0.9910100102424622 0.000014999999621068127 0.9450889825820923 -0.17689800262451172 0.2747969925403595
          0.951108992099762 -0.30885499715805054 0.00021399999968707561 0.3784630000591278 -0.9071800112724304 -0.1838189959526062
          0.9451810121536255 -0.17683300375938416 -0.27452200651168823 0.4066939949989319 -0.7788029909133911 0.4775629937648773
          0.14810499548912048 -0.6583060026168823 0.7380369901657104 -0.47959500551223755 -0.8773499727249146 -0.01569800078868866
          -0.5859889984130859 -0.8103190064430237 -0.000014000000192027073 -0.5198490023612976 -0.8381530046463013 0.1650950014591217
          -0.2647390067577362 -0.6470209956169128 0.7150369882583618 0.40668898820877075 -0.7788069844245911 -0.47756001353263855
          0.1481029987335205 -0.6583099961280823 -0.7380329966545105 -0.4795919954776764 -0.8773519992828369 0.015672000125050545
          -0.5198429822921753 -0.8381569981575012 -0.16509300470352173 -0.2647339999675751 -0.6470270156860352 -0.7150329947471619
          0.9941449761390686 0.10805600136518478 0.0001610000035725534 0.9353799819946289 0.14569200575351715 0.3222379982471466
          0.6919549703598022 0.07459399849176407 0.7180759906768799 0.9354770183563232 0.14572100341320038 -0.3219450116157532
          0.6919559836387634 0.07459799945354462 -0.7180749773979187 0.26583099365234375 0.12740300595760345 0.955564022064209
          -0.9232810139656067 -0.3825330138206482 -0.03494200110435486 -0.9949120283126831 -0.10074400156736374 -0.000018999999156221747
          -0.9232810139656067 -0.382533997297287 0.03493800014257431 -0.2635110020637512 -0.011733000166714191 0.96458500623703
          -0.7858480215072632 -0.3342060148715973 0.5203359723091125 -0.9538130164146423 -0.22949199378490448 -0.19384099543094635
          0.26583099365234375 0.12740300595760345 -0.955564022064209 -0.7858480215072632 -0.3342060148715973 -0.5203359723091125
          -0.2635110020637512 -0.011733000166714191 -0.96458500623703 -0.9538130164146423 -0.22949199378490448 0.19384099543094635
          0.9811949729919434 -0.19301700592041016 0.0003459999861661345 0.8927689790725708 -0.26668399572372437 0.3631030023097992
          0.6570090055465698 0.13734300434589386 0.7412670254707336 0.8928729891777039 -0.2666949927806854 -0.3628369867801666
          0.657010018825531 0.13734200596809387 -0.7412660121917725 0.2503040134906769 0.13373799622058868 0.9588860273361206
          -0.9763829708099365 0.1476760059595108 -0.15769900381565094 -0.995398998260498 0.09581399708986282 -0.00007599999662488699
          -0.9763889908790588 0.14767000079154968 0.15766599774360657 -0.14813700318336487 0.0436209999024868 0.9880040287971497
          -0.18275099992752075 -0.4749999940395355 0.86080002784729 -0.8128489851951599 -0.381523996591568 -0.4401310086250305
          0.2503040134906769 0.13373799622058868 -0.9588860273361206 -0.18275099992752075 -0.4749999940395355 -0.86080002784729
          -0.14813700318336487 0.0436209999024868 -0.9880040287971497 -0.8128489851951599 -0.381523996591568 0.4401310086250305
          0.9624390006065369 -0.27149900794029236 0.00020199999562464654 0.8959490060806274 -0.3145509958267212 0.3135800063610077
          0.5227839946746826 -0.3405590057373047 0.7814840078353882 0.896003007888794 -0.3145500123500824 -0.31342899799346924
          0.5227839946746826 -0.3405590057373047 -0.7814840078353882 0.15214799344539642 -0.33319899439811707 0.9304999709129333
          -0.9678429961204529 0.24668599665164948 0.04925300180912018 -0.7012699842453003 0.16727599501609802 -0.6929929852485657
          -0.882319986820221 0.47064998745918274 -0.000155999994603917 -0.9678440093994141 0.24666500091552734 -0.04934699833393097
          -0.7012699842453003 0.1672700047492981 0.6929939985275269 -0.06731600314378738 -0.2946400046348572 0.9532340168952942
          0.1433670073747635 -0.03184700012207031 0.9891570210456848 -0.24670900404453278 -0.9489960074424744 0.1963219940662384
          -0.2854500114917755 -0.5850570201873779 0.7590960264205933 0.0132020004093647 -0.057826001197099686 0.9982389807701111
          0.6844210028648376 -0.032628998160362244 -0.7283570170402527 0.15214799344539642 -0.33319899439811707 -0.9304999709129333
          0.1433670073747635 -0.03184700012207031 -0.9891570210456848 -0.06731600314378738 -0.2946400046348572 -0.9532340168952942
          -0.2854500114917755 -0.5850570201873779 -0.7590960264205933 -0.24671100080013275 -0.9489949941635132 -0.19631999731063843
          0.0132020004093647 -0.057826001197099686 -0.9982389807701111 0.684594988822937 -0.032597001641988754 0.7281950116157532
          0.9400669932365417 0.34098899364471436 0.00016900000628083944 0.8341330289840698 0.4504860043525696 0.31825199723243713
          0.5551859736442566 -0.3381589949131012 0.759880006313324 0.8341720104217529 0.45050400495529175 -0.318123996257782
          0.555188000202179 -0.33815398812294006 -0.759880006313324 0.10429900139570236 -0.3639940023422241 0.9255430102348328
          -0.20555000007152557 0.9452679753303528 -0.25341200828552246 -0.4361569881439209 0.22658100724220276 -0.8708770275115967
          -0.300790011882782 0.9536899924278259 -0.00019200000679120421 -0.2055799961090088 0.945294976234436 0.25328800082206726
          -0.4361560046672821 0.22657500207424164 0.8708800077438354 -0.143435999751091 -0.19276100397109985 0.9707059860229492
          -0.15923400223255157 0.39430001378059387 0.9050809741020203 0.07365500181913376 0.7460529804229736 0.6618009805679321
          -0.28883400559425354 -0.5108540058135986 0.8096929788589478 -0.4281559884548187 -0.49889400601387024 0.7535169720649719
          0.43641600012779236 -0.21395400166511536 0.8739370107650757 0.7604089975357056 -0.46497300267219543 0.4534069895744324
          0.14621199667453766 0.26768699288368225 0.9523469805717468 -0.6326090097427368 -0.49202099442481995 0.5980979800224304
          0.9716280102729797 -0.23651500046253204 -0.0002119999990100041 0.630728006362915 -0.6280390024185181 -0.4557949900627136
          -0.34559598565101624 0.9383829832077026 0.000048999998398358 -0.3412429988384247 0.5771219730377197 -0.7419459819793701
          0.10429900139570236 -0.3639940023422241 -0.9255430102348328 -0.15923400223255157 0.39430001378059387 -0.9050809741020203
          -0.143435999751091 -0.19276100397109985 -0.9707059860229492 0.07365500181913376 0.7460529804229736 -0.6618009805679321
          -0.42815399169921875 -0.498896986246109 -0.7535160183906555 -0.2888360023498535 -0.5108559727668762 -0.8096910119056702
          0.43641600012779236 -0.21395400166511536 -0.8739370107650757 0.7604100108146667 -0.46496498584747314 -0.4534139931201935
          -0.6326090097427368 -0.49202099442481995 -0.5980979800224304 0.14621199667453766 0.26768699288368225 -0.9523469805717468
          0.630711019039154 -0.6280919909477234 0.45574501156806946 -0.34115299582481384 0.5771390199661255 0.7419739961624146
          0.2137330025434494 0.9768919944763184 -0.000003999999989900971 0.6184409856796265 0.5998389720916748 0.5076659917831421
          0.3696820139884949 0.4368849992752075 0.8200410008430481 0.6184350252151489 0.599852979183197 -0.5076559782028198
          0.3696869909763336 0.4368939995765686 -0.8200340270996094 -0.034056998789310455 0.5811169743537903 0.8131070137023926
          0.017274999991059303 0.9940459728240967 -0.10757999867200851 0.1784069985151291 0.9184560179710388 0.3530009984970093
          -0.5166469812393188 0.6741300225257874 -0.5278499722480774 0.007379000075161457 0.9607549905776978 0.27730199694633484
          0.1784069985151291 0.9184560179710388 -0.3530009984970093 0.01727600023150444 0.9940469861030579 0.10757800191640854
          -0.51664799451828 0.6741269826889038 0.5278519988059998 0.007393000181764364 0.9607560038566589 -0.2772969901561737
          0.4418410062789917 0.5263490080833435 0.7264530062675476 0.4839380085468292 0.5477610230445862 0.6824679970741272
          0.5538740158081055 0.2324959933757782 0.7994800209999084 0.13604199886322021 -0.7151190042495728 0.6856369972229004
          0.5858110189437866 0.1191909983754158 0.8016350269317627 -0.7633839845657349 0.41674500703811646 0.49352601170539856
          -0.08846300095319748 0.15352199971675873 0.9841780066490173 -0.8497790098190308 -0.4467270076274872 -0.27984198927879333
          -0.8568639755249023 0.42245998978614807 -0.2954849898815155 0.8560889959335327 -0.4118120074272156 0.31228798627853394
          -0.025800999253988266 0.24630999565124512 0.9688469767570496 0.11399099975824356 -0.023802999407052994 0.9931970238685608
          -0.9172369837760925 -0.2862519919872284 0.2770119905471802 -0.9248200058937073 0.3240799903869629 -0.19919900596141815
          -0.15163899958133698 -0.9884359836578369 -0.00011899999663000926 -0.24478599429130554 -0.8883730173110962 -0.38842499256134033
          -0.7677540183067322 0.6407449841499329 0.00019200000679120421 -0.4125469923019409 0.8434720039367676 0.3440360128879547
          -0.6636850237846375 0.7298250198364258 0.1639450043439865 -0.8378660082817078 0.5034189820289612 -0.21107099950313568
          -0.41238299012184143 0.8436229825019836 -0.34386101365089417 -0.6635670065879822 0.7299690246582031 -0.16378100216388702
          -0.8378559947013855 0.5034080147743225 0.21113499999046326 -0.7414510250091553 0.43374601006507874 -0.5119720101356506
          -0.03405199944972992 0.581121027469635 -0.813103973865509 0.4418410062789917 0.5263490080833435 -0.7264530062675476
          0.4839380085468292 0.5477610230445862 -0.6824679970741272 -0.08845899999141693 0.15352800488471985 -0.9841769933700562
          -0.763384997844696 0.4167430102825165 -0.49352800846099854 0.13604199886322021 -0.7151209712028503 -0.6856340169906616
          -0.8497769832611084 -0.44672998785972595 0.27984100580215454 -0.8568699955940247 0.4224559962749481 0.29547399282455444
          0.5538740158081055 0.2324959933757782 -0.7994800209999084 0.5858110189437866 0.1191909983754158 -0.8016350269317627
          0.8560889959335327 -0.4118120074272156 -0.31228798627853394 -0.02580299973487854 0.24631400406360626 -0.9688469767570496
          -0.9172369837760925 -0.2862519919872284 -0.2770119905471802 0.11399099975824356 -0.023802999407052994 -0.9931970238685608
          -0.9248200058937073 0.3240799903869629 0.19919900596141815 -0.24467100203037262 -0.8884180188179016 0.38839399814605713
          -0.7414519786834717 0.4337480068206787 0.5119680166244507 -0.7722070217132568 0.5455780029296875 -0.3256379961967468
          -0.6422150135040283 0.2222139984369278 -0.7336080074310303 -0.7722070217132568 0.5455780029296875 0.3256379961967468
          -0.6422150135040283 0.2222139984369278 0.7336080074310303 -0.5926629900932312 -0.22447499632835388 0.7735390067100525
          -0.7209349870681763 -0.6375380158424377 0.2716589868068695 -0.8424710035324097 0.34301498532295227 0.4154309928417206
          -0.8933159708976746 -0.2328220009803772 0.3844220042228699 -0.7890549898147583 -0.4639340043067932 0.40268799662590027
          -0.7323330044746399 0.6353409886360168 0.24501200020313263 0.25538700819015503 -0.9323210120201111 0.25603601336479187
          0.06067200005054474 -0.9444910287857056 -0.32288700342178345 0.6772720217704773 -0.7357329726219177 -0.00007899999764049426
          0.06063200160861015 -0.9445359706878662 0.32276201248168945 -0.6720370054244995 0.5474650263786316 0.49864599108695984
          -0.7742050290107727 0.6329349875450134 -0.0006810000049881637 -0.7833510041236877 0.28022900223731995 0.5548269748687744
          -0.6720899939537048 0.5474669933319092 -0.4985730051994324 -0.7830650210380554 0.28053900599479675 -0.5550749897956848
          -0.7323340177536011 0.6353390216827393 -0.24501299858093262 -0.8933150172233582 -0.23282599449157715 -0.38442298769950867
          -0.8424710035324097 0.34301599860191345 -0.4154309928417206 -0.7890539765357971 -0.46393799781799316 -0.4026849865913391
          -0.5926629900932312 -0.22447499632835388 -0.7735390067100525 -0.7209349870681763 -0.6375380158424377 -0.2716589868068695
          0.2553820013999939 -0.9323229789733887 -0.25603699684143066 -0.6777129769325256 0.20868000388145447 0.7050939798355103
          -0.14041699469089508 -0.934719979763031 0.32646799087524414 -0.2332340031862259 -0.9361730217933655 -0.26302599906921387
          0.5778999924659729 -0.8161069750785828 0.00002700000004551839 -0.23323699831962585 -0.9361730217933655 0.2630220055580139
          -0.14043499529361725 -0.9347019791603088 -0.3265109956264496 -0.5886880159378052 0.8083580136299133 -0.0016039999900385737
          -0.676846981048584 0.20809300243854523 -0.7060989737510681 -0.1507280021905899 0.20137999951839447 0.9678469896316528
          -0.1924159973859787 0.02015800029039383 0.9811059832572937 0.4265660047531128 -0.764644980430603 0.48307299613952637
          -0.03190699964761734 -0.9994900226593018 -0.0008699999889358878 0.4265649914741516 -0.7646210193634033 -0.48311200737953186
          -0.19243000447750092 0.020168999210000038 -0.9811040163040161 -0.7857120037078857 0.2021300047636032 0.5846369862556458
          -0.9989920258522034 0.04486199840903282 -0.0011340000201016665 -0.14983400702476501 0.19982899725437164 -0.9683070182800293
          -0.7847599983215332 0.20124199986457825 -0.5862200260162354 -0.45778098702430725 -0.6217859983444214 0.6354680061340332
          -0.7148380279541016 -0.6992890238761902 -0.0009139999747276306 -0.45679399371147156 -0.6218109726905823 -0.636152982711792
          <InformationKey name="L2_NORM_RANGE" location="vtkDataArray" length="2">
            <Value index="0">
              0.9999993341
            </Value>
            <Value index="1">
              1.0000006433
            </Value>
          </InformationKey>
        </DataArray>
      </PointData>
      <CellData>
      </CellData>
      <Points>
        <DataArray type="Float32" Name="Points" NumberOfComponents="3" format="ascii" RangeMin="0.2536559037528972" RangeMax="0.30006606434435723">
          -0.061873000115156174 0.24599400162696838 0.00002300000051036477 -0.06248899921774864 0.24638399481773376 0.0076430002227425575
          -0.07421500235795975 0.24819199740886688 0.000003000000106112566 -0.06084199994802475 0.2497600018978119 0.00916799996048212
          -0.06093600019812584 0.24724499881267548 0.00002499999936844688 -0.06248899921774864 0.24638399481773376 -0.0076430002227425575
          -0.06084199994802475 0.2497600018978119 -0.00916799996048212 -0.06614399701356888 0.24754899740219116 0.015572000294923782
          -0.07208900153636932 0.2488269954919815 0.019429000094532967 -0.0853469967842102 0.24941900372505188 0.004596000071614981
          -0.08543200045824051 0.24969600141048431 0.000003000000106112566 -0.08564600348472595 0.2497040033340454 0.013527999632060528
          -0.08158700168132782 0.25021299719810486 0.019533000886440277 -0.06614399701356888 0.24754899740219116 -0.015572000294923782
          -0.07208900153636932 0.2488269954919815 -0.019429000094532967 -0.0853469967842102 0.24941900372505188 -0.004596000071614981
          -0.08564600348472595 0.2497040033340454 -0.013527999632060528 -0.08158700168132782 0.25021299719810486 -0.019533000886440277
          -0.060982998460531235 0.25147199630737305 0.00002499999936844688 -0.06210799887776375 0.25211700797080994 0.009816000238060951
          -0.06539600342512131 0.25138500332832336 0.01654299907386303 -0.06210799887776375 0.25211700797080994 -0.009816000238060951
          -0.06539600342512131 0.25138500332832336 -0.01654299907386303 -0.07246699929237366 0.2534089982509613 0.020093999803066254
          -0.08836899697780609 0.2531050145626068 0.004730000160634518 -0.0883530005812645 0.25298500061035156 0.000003000000106112566
          -0.08836899697780609 0.2531050145626068 -0.004730000160634518 -0.08209100365638733 0.2551960051059723 0.020237000659108162
          -0.08820299804210663 0.2507390081882477 0.015192000195384026 -0.08904200047254562 0.2545509934425354 0.008988999761641026
          -0.07246699929237366 0.2534089982509613 -0.020093999803066254 -0.08820299804210663 0.2507390081882477 -0.015192000195384026
          -0.08209100365638733 0.2551960051059723 -0.020237000659108162 -0.08904200047254562 0.2545509934425354 -0.008988999761641026
          -0.05961700156331062 0.2600489854812622 0.000028000000384054147 -0.06099899858236313 0.2593590021133423 0.009472999721765518
          -0.06672699749469757 0.2542650103569031 0.016131000593304634 -0.06099899858236313 0.2593590021133423 -0.009472999721765518
          -0.06672699749469757 0.2542650103569031 -0.016131000593304634 -0.07206100225448608 0.2571829855442047 0.018279999494552612
          -0.08730799704790115 0.2594980001449585 0.0060640000738203526 -0.08686300367116928 0.259427011013031 0.000004999999873689376
          -0.08730799704790115 0.2594980001449585 -0.0060640000738203526 -0.08155699819326401 0.2584590017795563 0.01915300078690052
          -0.0864270031452179 0.25808000564575195 0.0181099995970726 -0.08889400213956833 0.260358989238739 0.009274999611079693
          -0.07206100225448608 0.2571829855442047 -0.018279999494552612 -0.0864270031452179 0.25808000564575195 -0.0181099995970726
          -0.08155699819326401 0.2584590017795563 -0.01915300078690052 -0.08889400213956833 0.260358989238739 -0.009274999611079693
          -0.05866999924182892 0.26335400342941284 0.000029000000722589903 -0.05926699936389923 0.2631320059299469 0.010479000397026539
          -0.06614000350236893 0.26099100708961487 0.01675100065767765 -0.05926699936389923 0.2631320059299469 -0.010479000397026539
          -0.06614000350236893 0.26099100708961487 -0.01675100065767765 -0.07049400359392166 0.2620899975299835 0.01836399920284748
          -0.08714699745178223 0.268559992313385 0.006266999989748001 -0.08626499772071838 0.26755601167678833 0.009697999805212021
          -0.08648700267076492 0.2685050070285797 0.000007000000096013537 -0.08714699745178223 0.268559992313385 -0.006266999989748001
          -0.08626499772071838 0.26755601167678833 -0.009697999805212021 -0.07944600284099579 0.2644610106945038 0.019291000440716743
          -0.0835610032081604 0.2662769854068756 0.019665999338030815 -0.09189999848604202 0.25893300771713257 0.016315000131726265
          -0.08904100209474564 0.26080700755119324 0.020003000274300575 -0.08937899768352509 0.2674489915370941 0.023917999118566513
          -0.09611699730157852 0.26355400681495667 0.0035600000992417336 -0.07049400359392166 0.2620899975299835 -0.01836399920284748
          -0.0835610032081604 0.2662769854068756 -0.019665999338030815 -0.07944600284099579 0.2644610106945038 -0.019291000440716743
          -0.08904100209474564 0.26080700755119324 -0.020003000274300575 -0.09189999848604202 0.25893300771713257 -0.016315000131726265
          -0.08937899768352509 0.2674489915370941 -0.023917999118566513 -0.09611699730157852 0.26355400681495667 -0.0035600000992417336
          -0.05826500058174133 0.26719701290130615 0.000029000000722589903 -0.05903699994087219 0.26715898513793945 0.010672000236809254
          -0.0639519989490509 0.26384401321411133 0.01773099973797798 -0.05903699994087219 0.26715898513793945 -0.010672000236809254
          -0.0639519989490509 0.26384401321411133 -0.01773099973797798 -0.069473996758461 0.26463401317596436 0.020305000245571136
          -0.08415199816226959 0.2731179893016815 0.007988999597728252 -0.08503399789333344 0.271791011095047 0.010413000360131264
          -0.08278799802064896 0.2719910144805908 0.000009000000318337698 -0.08415199816226959 0.2731179893016815 -0.007988999597728252
          -0.08503399789333344 0.271791011095047 -0.010413000360131264 -0.07696399837732315 0.26770099997520447 0.02128399908542633
          -0.08392299711704254 0.27024000883102417 0.01900400035083294 -0.08678500354290009 0.27080899477005005 0.01904899999499321
          -0.09852900356054306 0.26729801297187805 0.022079000249505043 -0.09741800278425217 0.26335200667381287 0.016409000381827354
          -0.09557700157165527 0.2575789988040924 0.02361699938774109 -0.09398599714040756 0.25702300667762756 0.01005600020289421
          -0.09392300248146057 0.2653610110282898 0.022714000195264816 -0.09625499695539474 0.2596299946308136 0.020648999139666557
          -0.0973069965839386 0.2589620053768158 0.000003000000106112566 -0.1016950011253357 0.24919100105762482 0.004883000161498785
          -0.1036050021648407 0.2661469876766205 0.000004999999873689376 -0.09740699827671051 0.2690980136394501 0.007368999999016523
          -0.069473996758461 0.26463401317596436 -0.020305000245571136 -0.08392299711704254 0.27024000883102417 -0.01900400035083294
          -0.07696399837732315 0.26770099997520447 -0.02128399908542633 -0.08678500354290009 0.27080899477005005 -0.01904899999499321
          -0.09741800278425217 0.26335200667381287 -0.016409000381827354 -0.09852900356054306 0.26729801297187805 -0.022079000249505043
          -0.09557700157165527 0.2575789988040924 -0.02361699938774109 -0.09398599714040756 0.25702300667762756 -0.01005600020289421
          -0.09625499695539474 0.2596299946308136 -0.020648999139666557 -0.09392300248146057 0.2653610110282898 -0.022714000195264816
          -0.1016950011253357 0.24919100105762482 -0.004883000161498785 -0.09740699827671051 0.2690980136394501 -0.007368999999016523
          -0.07182099670171738 0.27048298716545105 0.000009000000318337698 -0.0635249987244606 0.26801300048828125 0.017976000905036926
          -0.06969299912452698 0.2696009874343872 0.021285999566316605 -0.0635249987244606 0.26801300048828125 -0.017976000905036926
          -0.06969299912452698 0.2696009874343872 -0.021285999566316605 -0.07775299996137619 0.2710759937763214 0.02141599915921688
          -0.09532999992370605 0.27671799063682556 0.015275999903678894 -0.08630499988794327 0.27230799198150635 0.013465999625623226
          -0.0954279974102974 0.27437400817871094 0.009607999585568905 -0.08252499997615814 0.2723119854927063 0.01634399965405464
          -0.08630499988794327 0.27230799198150635 -0.013465999625623226 -0.09532999992370605 0.27671799063682556 -0.015275999903678894
          -0.0954279974102974 0.27437400817871094 -0.009607999585568905 -0.08252499997615814 0.2723119854927063 -0.01634399965405464
          -0.09534399956464767 0.270440012216568 0.020274000242352486 -0.09412000328302383 0.27292200922966003 0.017562000080943108
          -0.10703399777412415 0.2783530056476593 0.03321100026369095 -0.10303500294685364 0.2695100009441376 0.0201370008289814
          -0.09775599837303162 0.27228599786758423 0.020312000066041946 -0.10865800082683563 0.2564699947834015 0.012070000171661377
          -0.10459200292825699 0.2570340037345886 0.014775999821722507 -0.10869999974966049 0.27012899518013 0.024181999266147614
          -0.10180699825286865 0.2669430077075958 0.012105000205338001 -0.0946900025010109 0.2553589940071106 0.011455999687314034
          -0.10897000133991241 0.25301000475883484 0.01627499982714653 -0.09730300307273865 0.2663179934024811 0.025123000144958496
          -0.09898199886083603 0.2647339999675751 0.02291099913418293 -0.09910299628973007 0.2709360122680664 0.02323400042951107
          -0.10349100083112717 0.25400999188423157 0.000003000000106112566 -0.10156700015068054 0.2482749968767166 0.006399000063538551
          -0.11447300016880035 0.2572900056838989 0.000003999999989900971 -0.10495500266551971 0.26332101225852966 0.004732999950647354
          -0.1016319990158081 0.2617410123348236 0.007925000041723251 -0.10111299902200699 0.26540398597717285 0.009933000430464745
          -0.10495500266551971 0.26332101225852966 -0.004732999950647354 -0.1016319990158081 0.2617410123348236 -0.007925000041723251
          -0.10111299902200699 0.26540398597717285 -0.009933000430464745 -0.09831099957227707 0.26972898840904236 0.010838000103831291
          -0.07775299996137619 0.2710759937763214 -0.02141599915921688 -0.09534399956464767 0.270440012216568 -0.020274000242352486
          -0.09412000328302383 0.27292200922966003 -0.017562000080943108 -0.10459200292825699 0.2570340037345886 -0.014775999821722507
          -0.10865800082683563 0.2564699947834015 -0.012070000171661377 -0.10303500294685364 0.2695100009441376 -0.0201370008289814
          -0.10869999974966049 0.27012899518013 -0.024181999266147614 -0.10180699825286865 0.2669430077075958 -0.012105000205338001
          -0.10703399777412415 0.2783530056476593 -0.03321100026369095 -0.09775599837303162 0.27228599786758423 -0.020312000066041946
          -0.0946900025010109 0.2553589940071106 -0.011455999687314034 -0.10897000133991241 0.25301000475883484 -0.01627499982714653
          -0.09898199886083603 0.2647339999675751 -0.02291099913418293 -0.09730300307273865 0.2663179934024811 -0.025123000144958496
          -0.09910299628973007 0.2709360122680664 -0.02323400042951107 -0.10156700015068054 0.2482749968767166 -0.006399000063538551
          -0.09831099957227707 0.26972898840904236 -0.010838000103831291 -0.1123410016298294 0.27667000889778137 0.027837000787258148
          -0.1015930026769638 0.2719559967517853 0.013292999938130379 -0.1123410016298294 0.27667000889778137 -0.027837000787258148
          -0.1015930026769638 0.2719559967517853 -0.013292999938130379 -0.11089400202035904 0.27510198950767517 0.03679800033569336
          -0.11274000257253647 0.27348199486732483 0.02859400026500225 -0.11111299693584442 0.2545120120048523 0.009797999635338783
          -0.11179199814796448 0.25074100494384766 0.00927099958062172 -0.10966899991035461 0.2474370002746582 0.016042999923229218
          -0.10829400271177292 0.2581929862499237 0.008449999615550041 -0.1028589978814125 0.24658100306987762 0.01271700020879507
          -0.10333699733018875 0.25133898854255676 0.00508899986743927 -0.10639700293540955 0.2500759959220886 9.999999974752427e-7
          -0.10333699733018875 0.25133898854255676 -0.00508899986743927 -0.11280699819326401 0.25912201404571533 0.0039969999343156815
          -0.12202999740839005 0.24812300503253937 -0.000014999999621068127 -0.11303800344467163 0.25529301166534424 0.003889000043272972
          -0.11280699819326401 0.25912201404571533 -0.0039969999343156815 -0.11303800344467163 0.25529301166534424 -0.003889000043272972
          -0.10829400271177292 0.2581929862499237 -0.008449999615550041 -0.11179199814796448 0.25074100494384766 -0.00927099958062172
          -0.11111299693584442 0.2545120120048523 -0.009797999635338783 -0.10966899991035461 0.2474370002746582 -0.016042999923229218
          -0.11089400202035904 0.27510198950767517 -0.03679800033569336 -0.11274000257253647 0.27348199486732483 -0.02859400026500225
          -0.1028589978814125 0.24658100306987762 -0.01271700020879507 -0.11369500309228897 0.25171399116516113 0.004056999925523996
          -0.11308100074529648 0.24976299703121185 0.004755999892950058 -0.10871099680662155 0.24775099754333496 0.0072929998859763145
          -0.11350499838590622 0.2455960065126419 0 -0.10871099680662155 0.24775099754333496 -0.0072929998859763145
          -0.11308100074529648 0.24976299703121185 -0.004755999892950058 -0.1288290023803711 0.2428950071334839 -0.000018999999156221747
          -0.11369500309228897 0.25171399116516113 -0.004056999925523996 -0.12294899672269821 0.24125200510025024 0.002876000013202429
          -0.11633499711751938 0.24399100244045258 0.004430000204592943 -0.12452200055122375 0.23395299911499023 0.002242000075057149
          -0.12518799304962158 0.2337850034236908 -0.000003000000106112566 -0.12452200055122375 0.23395299911499023 -0.002242000075057149
          -0.11633499711751938 0.24399100244045258 -0.004430000204592943 -0.13145899772644043 0.24016399681568146 0.002908000024035573
          -0.13238699734210968 0.23912200331687927 -0.000014000000192027073 -0.12294899672269821 0.24125200510025024 -0.002876000013202429
          -0.13145899772644043 0.24016399681568146 -0.002908000024035573 -0.1302960067987442 0.2368839979171753 0.003386999946087599
          -0.1286270022392273 0.23520000278949738 -0.000019999999494757503 -0.1302960067987442 0.2368839979171753 -0.003386999946087599
          <InformationKey name="L2_NORM_RANGE" location="vtkDataArray" length="2">
            <Value index="0">
              0.25365590375
            </Value>
            <Value index="1">
              0.30006606434
            </Value>
          </InformationKey>
        </DataArray>
      </Points>
      <Verts>
        <DataArray type="Int64" Name="connectivity" format="ascii" RangeMin="1e+299" RangeMax="-1e+299">
        </DataArray>
        <DataArray type="Int64" Name="offsets" format="ascii" RangeMin="1e+299" RangeMax="-1e+299">
        </DataArray>
      </Verts>
      <Lines>
        <DataArray type="Int64" Name="connectivity" format="ascii" RangeMin="1e+299" RangeMax="-1e+299">
        </DataArray>
        <DataArray type="Int64" Name="offsets" format="ascii" RangeMin="1e+299" RangeMax="-1e+299">
        </DataArray>
      </Lines>
      <Strips>
        <DataArray type="Int64" Name="connectivity" format="ascii" RangeMin="1e+299" RangeMax="-1e+299">
        </DataArray>
        <DataArray type="Int64" Name="offsets" format="ascii" RangeMin="1e+299" RangeMax="-1e+299">
        </DataArray>
      </Strips>
      <Polys>