<?xml version="1.0"?>
<VTKFile type="PolyData" version="0.1" byte_order="LittleEndian" header_type="UInt32" compressor="vtkZLibDataCompressor">
  <PolyData>
    <Piece NumberOfPoints="212" NumberOfVerts="0" NumberOfLines="0" NumberOfStrips="0" NumberOfPolys="424">
      <PointData Normals="Normals">
        <DataArray type="Float32" Name="Normals" NumberOfComponents="3" format="ascii" RangeMin="0.99999938339699" RangeMax="1.0000006983126517">
          0.9397050142288208 -0.34198498725891113 0.00036299999919719994 0.827331006526947 -0.5242900252342224 0.20160099864006042
          0.47062599658966064 -0.882332980632782 0.00001700000029813964 0.8788759708404541 0.35799500346183777 0.3153040111064911
          0.9681580066680908 0.2503400146961212 0.00023700000019744039 0.8274229764938354 -0.5242440104484558 -0.20134200155735016
          0.878944993019104 0.3580999970436096 -0.3149920105934143 0.757722020149231 -0.41289299726486206 0.5053480267524719
          0.48785600066185 -0.4492790102958679 0.748429000377655 -0.14046399295330048 -0.9899119734764099 -0.018572000786662102
          -0.17244799435138702 -0.9850190281867981 0.00006199999916134402 -0.11480399966239929 -0.9871479868888855 0.1111690029501915
          0.13942700624465942 -0.6817399859428406 0.7181850075721741 0.7577199935913086 -0.41290101408958435 -0.5053439736366272
          0.48785400390625 -0.4492790102958679 -0.7484300136566162 -0.14045999944210052 -0.9899119734764099 0.018549999222159386
          -0.11479900032281876 -0.9871490001678467 -0.11116699874401093 0.13943199813365936 -0.6817399859428406 -0.7181850075721741
          0.7828599810600281 0.6221969723701477 0.000195999993593432 0.700764000415802 0.6041600108146667 0.37936800718307495
          0.4877240061759949 0.40401899814605713 0.7738829851150513 0.7008579969406128 0.6042569875717163 -0.379040002822876
          0.4877209961414337 0.40401899814605713 -0.7738839983940125 0.12219300121068954 0.21510499715805054 0.9689159989356995
          -0.6710169911384583 -0.7317410111427307 0.11954600363969803 -0.7452080249786377 -0.6668319702148438 0.00013600000238511711
          -0.6710320115089417 -0.7317519783973694 -0.11939900368452072 -0.24872499704360962 -0.1310809999704361 0.9596629738807678
          -0.6238930225372314 -0.6983709931373596 0.3507649898529053 -0.6465659737586975 -0.6833189725875854 -0.3391590118408203
          0.12219200283288956 0.21510399878025055 -0.9689170122146606 -0.6238930225372314 -0.6983709931373596 -0.3507649898529053
          -0.24872100353240967 -0.13108199834823608 -0.959663987159729 -0.6465659737586975 -0.6833189725875854 0.3391590118408203
          0.9474939703941345 0.31977400183677673 0.00038400001358240843 0.8982890248298645 0.20329800248146057 0.3895469903945923
          0.4428670108318329 0.40496501326560974 0.7999200224876404 0.8984010219573975 0.203342005610466 -0.3892660140991211
          0.4428670108318329 0.4049609899520874 -0.799921989440918 0.13954000174999237 0.174918994307518 0.9746450185775757
          -0.8761860132217407 -0.4417929947376251 -0.19265499711036682 -0.9441450238227844 -0.3295300006866455 -0.00008099999831756577
          -0.8761839866638184 -0.44179001450538635 0.19267399609088898 -0.15784800052642822 -0.00133200001437217 0.9874629974365234
          0.09950900077819824 -0.4835669994354248 0.8696330189704895 -0.4354040026664734 -0.7275810241699219 -0.5301399827003479
          0.13954299688339233 0.17491400241851807 -0.9746450185775757 0.09951099753379822 -0.48356500267982483 -0.8696330189704895
          -0.15785199403762817 -0.0013269999762997031 -0.9874619841575623 -0.4354040026664734 -0.7275810241699219 0.5301399827003479
          0.9697499871253967 0.24410100281238556 0.00021600000036414713 0.927154004573822 0.18118199706077576 0.3279600143432617
          0.6077389717102051 -0.03773299977183342 0.7932400107383728 0.9272050261497498 0.18121099472045898 -0.327800989151001
          0.6077370047569275 -0.037728000432252884 -0.7932419776916504 0.3058930039405823 -0.18434099853038788 0.9340490102767944
          -0.903784990310669 -0.33096200227737427 -0.2713629901409149 -0.37973499298095703 -0.07065399736166 -0.9223930239677429
          -0.9348400235176086 -0.35506999492645264 -0.00015999999595806003 -0.9038040041923523 -0.33099299669265747 0.2712610065937042
          -0.37973499298095703 -0.07065399736166 0.9223930239677429 0.11798799782991409 -0.24805299937725067 0.9615349769592285
          0.13543599843978882 0.04031600058078766 0.9899659752845764 0.08799000084400177 -0.972540020942688 0.21546100080013275
          0.06269200146198273 -0.62773197889328 0.7759010195732117 0.05670800060033798 -0.03442399948835373 0.9977970123291016
          0.6024140119552612 0.3041900098323822 -0.7379469871520996 0.3058899939060211 -0.18433600664138794 -0.934050977230072
          0.13544300198554993 0.0403130017220974 -0.98996502161026 0.11799100041389465 -0.24805399775505066 -0.9615340232849121
          0.06269200146198273 -0.62773197889328 -0.7759010195732117 0.08799000084400177 -0.972540020942688 -0.21546100080013275
          0.05670800060033798 -0.03442399948835373 -0.9977970123291016 0.6026239991188049 0.30430999398231506 0.7377259731292725
          0.6409170031547546 0.7676100134849548 0.00019299999985378236 0.4696049988269806 0.8091689944267273 0.3531529903411865
          0.6326789855957031 0.0036150000523775816 0.7744050025939941 0.46963998675346375 0.809211015701294 -0.3530089855194092
          0.6326799988746643 0.0036170000676065683 -0.7744050025939941 0.28196901082992554 -0.21757200360298157 0.9344279766082764
          -0.6984339952468872 0.5982149839401245 -0.39284801483154297 -0.18722400069236755 -0.09125199913978577 -0.9780700206756592
          -0.9049140214920044 0.4255959987640381 -0.00023700000019744039 -0.6985020041465759 0.5982369780540466 0.3926919996738434
          -0.18722400069236755 -0.09125199913978577 0.9780700206756592 -0.011146999895572662 -0.20398299396038055 0.9789109826087952
          -0.2464269995689392 0.13479000329971313 0.95974200963974 -0.08375199884176254 0.6593539714813232 0.7471529841423035
          -0.5466449856758118 -0.41150400042533875 0.7292760014533997 -0.4314559996128082 -0.5734559893608093 0.6964150071144104
          0.338238000869751 -0.09930700063705444 0.9358059763908386 0.8021339774131775 -0.2114589959383011 0.5584499835968018
          0.08657500147819519 0.29185599088668823 0.9525359869003296 -0.4945110082626343 -0.5810909867286682 0.6463680267333984
          0.9242730140686035 0.3817330002784729 -0.0003589999978430569 0.9415720105171204 -0.0810920000076294 -0.3269050121307373
          -0.7367029786109924 0.6762170195579529 0.000014999999621068127 -0.5061609745025635 0.3763889968395233 -0.7759720087051392
          0.2819719910621643 -0.21757200360298157 -0.93442702293396 -0.2464269995689392 0.13479000329971313 -0.95974200963974
          -0.011142999865114689 -0.20398899912834167 -0.9789100289344788 -0.08375199884176254 0.6593539714813232 -0.7471529841423035
          -0.4314559996128082 -0.5734559893608093 -0.6964150071144104 -0.5466480255126953 -0.41150298714637756 -0.7292739748954773
          0.338238000869751 -0.09930700063705444 -0.9358059763908386 0.8021330237388611 -0.21146099269390106 -0.5584509968757629
          -0.49450600147247314 -0.5810850262641907 -0.6463770270347595 0.08656899631023407 0.29185399413108826 -0.9525370001792908
          0.9416710138320923 -0.08109500259160995 0.3266189992427826 -0.5060889720916748 0.376446008682251 0.7759910225868225
          -0.3557029962539673 0.934598982334137 9.999999974752427e-7 0.17387700080871582 0.8232139945030212 0.5404490232467651
          0.03276500105857849 0.5493299961090088 0.8349630236625671 0.17387300729751587 0.8232160210609436 -0.5404469966888428
          0.03276500105857849 0.5493350028991699 -0.8349599838256836 -0.29054000973701477 0.3772220015525818 0.8793690204620361
          -0.28492599725723267 0.9303489923477173 -0.23080000281333923 -0.055622998625040054 0.9242680072784424 0.3776710033416748
          -0.7384219765663147 0.34300199151039124 -0.5805889964103699 -0.48545798659324646 0.7706599831581116 0.4128110110759735
          -0.055622998625040054 0.9242680072784424 -0.3776710033416748 -0.2849290072917938 0.9303479790687561 0.23080000281333923
          -0.7384200096130371 0.3430030047893524 0.5805910229682922 -0.4854469895362854 0.7706729769706726 -0.41280001401901245
          0.2077839970588684 0.6279039978981018 0.7500420212745667 0.18433000147342682 0.7296370267868042 0.6585230231285095
          -0.28756898641586304 0.49932000041007996 0.8173030018806458 0.08165500313043594 -0.41975799202919006 0.9039559960365295
          0.02882399968802929 0.46247598528862 0.8861629962921143 -0.8468239903450012 -0.021712999790906906 0.5314310193061829
          -0.1366710066795349 0.028624000027775764 0.9902030229568481 -0.8456770181655884 -0.3143869936466217 -0.43126699328422546
          -0.8898500204086304 -0.055181000381708145 -0.45290300250053406 0.9361780285835266 0.1500770002603531 0.3178820013999939
          -0.34907498955726624 0.1770389974117279 0.9202190041542053 0.08839999884366989 0.007845999673008919 0.9960539937019348
          -0.6825640201568604 -0.601947009563446 0.41444700956344604 -0.9846389889717102 -0.16831199824810028 0.046441998332738876
          -0.007701000198721886 -0.999970018863678 -0.00026599998818710446 0.2539440095424652 -0.831616997718811 -0.4938870072364807
          -0.9767490029335022 0.2143860012292862 0.0001880000054370612 -0.8155320286750793 0.46839699149131775 0.33987000584602356
          -0.9177349805831909 0.3460809886455536 0.19491100311279297 -0.9423189759254456 0.22925600409507751 -0.24387800693511963
          -0.8154690265655518 0.4685550034046173 -0.339803010225296 -0.9177060127258301 0.346233993768692 -0.19477500021457672
          -0.9423019886016846 0.22924399375915527 0.24395599961280823 -0.7602859735488892 0.11679799854755402 -0.6390020251274109
          -0.2905380129814148 0.37723299860954285 -0.8793650269508362 0.20778299868106842 0.6279019713401794 -0.7500439882278442
          0.18432700634002686 0.7296370267868042 -0.6585230231285095 -0.1366710066795349 0.028624000027775764 -0.9902030229568481
          -0.8468239903450012 -0.021712999790906906 -0.5314310193061829 0.08165500313043594 -0.4197550117969513 -0.9039570093154907
          -0.8456770181655884 -0.31439998745918274 0.43125900626182556 -0.8898500204086304 -0.055188000202178955 0.4529019892215729
          -0.28757598996162415 0.49932101368904114 -0.8172990083694458 0.028815999627113342 0.46247598528862 -0.8861629962921143
          0.9361760020256042 0.15007199347019196 -0.31788700819015503 -0.34907498955726624 0.1770389974117279 -0.9202190041542053
          -0.6825550198554993 -0.6019449830055237 -0.41446399688720703 0.08840300142765045 0.007846999913454056 -0.9960539937019348
          -0.984637975692749 -0.16831399500370026 -0.04645499959588051 0.25385600328445435 -0.8317450284957886 0.4937190115451813
          -0.7602869868278503 0.11679399758577347 0.6390010118484497 -0.9121469855308533 0.38040900230407715 -0.1525689959526062
          -0.3735170066356659 0.156468003988266 -0.9143319725990295 -0.9121459722518921 0.38040998578071594 0.15257200598716736
          -0.3735229969024658 0.15647199749946594 0.9143289923667908 -0.30060499906539917 -0.40314701199531555 0.8643550276756287
          -0.050808001309633255 -0.33215099573135376 0.9418569803237915 -0.9066920280456543 0.02306699939072132 0.4211620092391968
          -0.6697319746017456 -0.5773019790649414 0.46709999442100525 -0.5597079992294312 -0.7261890172958374 0.39921998977661133
          -0.9450939893722534 0.14109399914741516 0.2947700023651123 0.3882580101490021 -0.8535739779472351 0.34737101197242737
          0.07421000301837921 -0.915116012096405 -0.3963020145893097 0.6395149827003479 -0.7687789797782898 -0.0002229999954579398
          0.07405500113964081 -0.9152250289916992 0.39608100056648254 -0.8328269720077515 0.1062140017747879 0.5432479977607727
          -0.921442985534668 0.3885129988193512 -0.0008190000080503523 -0.8021860122680664 -0.042511001229286194 0.5955590009689331
          -0.8328850269317627 0.10617899894714355 -0.5431650280952454 -0.8019819855690002 -0.042038001120090485 -0.5958669781684875
          -0.9450939893722534 0.14109399914741516 -0.2947700023651123 -0.6697319746017456 -0.5773019790649414 -0.46709999442100525
          -0.9066920280456543 0.02306699939072132 -0.4211620092391968 -0.5597079992294312 -0.7261890172958374 -0.39921998977661133
          -0.300603985786438 -0.4031429886817932 -0.8643569946289062 -0.050808001309633255 -0.33215099573135376 -0.9418569803237915
          0.3882580101490021 -0.8535739779472351 -0.34737101197242737 -0.6491259932518005 0.03206200152635574 0.760004997253418
          0.0782179981470108 -0.6944980025291443 0.7152299880981445 -0.09013999998569489 -0.9895570278167725 -0.11247800290584564
          0.7572219967842102 -0.6531580090522766 -0.00002700000004551839 -0.09013999998569489 -0.9895570278167725 0.11247800290584564
          0.07819999754428864 -0.6944789886474609 -0.7152510285377502 -0.848613977432251 0.5290110111236572 -0.001415999955497682
          -0.6480410099029541 0.031769998371601105 -0.7609429955482483 -0.18138399720191956 0.20959800481796265 0.9608169794082642
          0.05934799835085869 -0.06837499886751175 0.9958930015563965 0.47510001063346863 -0.45590201020240784 0.7526170015335083
          0.37140199542045593 -0.9284719824790955 -0.0005210000090301037 0.4750730097293854 -0.4558570086956024 -0.7526620030403137
          0.059335000813007355 -0.06837499886751175 -0.9958940148353577 -0.7967979907989502 -0.2169570028781891 0.5639529824256897
          -0.8742510080337524 -0.48547399044036865 -0.0010239999974146485 -0.18052899837493896 0.2088399976491928 -0.9611430168151855
          -0.7956740260124207 -0.21703599393367767 -0.5655080080032349 -0.06605599820613861 -0.7090269923210144 0.702081024646759
          -0.3302749991416931 -0.943884015083313 -0.0009919999865815043 -0.06542199850082397 -0.7084710001945496 -0.702701985836029
          <InformationKey name="L2_NORM_RANGE" location="vtkDataArray" length="2">
            <Value index="0">
              0.9999993834
            </Value>
            <Value index="1">
              1.0000006983
            </Value>
          </InformationKey>
        </DataArray>
      </PointData>
      <CellData>
      </CellData>
      <Points>
        <DataArray type="Float32" Name="Points" NumberOfComponents="3" format="ascii" RangeMin="0.06455208408844693" RangeMax="0.1102170146332827">
          -0.02292799949645996 0.060343001037836075 0.00002499999936844688 -0.02382799983024597 0.06026399880647659 0.008244000375270844
          -0.03723800182342529 0.05285700038075447 0.000003000000106112566 -0.02434699982404709 0.06512899696826935 0.009890000335872173
          -0.022779999300837517 0.06240500137209892 0.00002700000004551839 -0.02382799983024597 0.06026399880647659 -0.008244000375270844
          -0.02434699982404709 0.06512899696826935 -0.009890000335872173 -0.02840599976480007 0.05858999863266945 0.016798000782728195
          -0.035443998873233795 0.05521399900317192 0.020958000794053078 -0.049125999212265015 0.04660400003194809 0.00495699979364872
          -0.04939600080251694 0.046828001737594604 0.000003000000106112566 -0.04962500184774399 0.04666699841618538 0.014592000283300877
          -0.046254001557826996 0.04913200065493584 0.021071000024676323 -0.02840599976480007 0.05858999863266945 -0.016798000782728195
          -0.035443998873233795 0.05521399900317192 -0.020958000794053078 -0.049125999212265015 0.04660400003194809 -0.00495699979364872
          -0.04962500184774399 0.04666699841618538 -0.014592000283300877 -0.046254001557826996 0.04913200065493584 -0.021071000024676323
          -0.025627000257372856 0.06682000309228897 0.00002700000004551839 -0.027225999161601067 0.06660600006580353 0.01058799959719181
          -0.03016600012779236 0.06322400271892548 0.0178459994494915 -0.027225999161601067 0.06660600006580353 -0.01058799959719181
          -0.03016600012779236 0.06322400271892548 -0.0178459994494915 -0.038871001452207565 0.05973999947309494 0.021676000207662582
          -0.052685000002384186 0.049977999180555344 0.0051020001992583275 -0.05461600050330162 0.04797299951314926 0.000003000000106112566
          -0.052685000002384186 0.049977999180555344 -0.0051020001992583275 -0.05007699877023697 0.053978998214006424 0.021828999742865562
          -0.05297299847006798 0.04572699964046478 0.016388000920414925 -0.054200999438762665 0.0510919988155365 0.009696000255644321
          -0.038871001452207565 0.05973999947309494 -0.021676000207662582 -0.05297299847006798 0.04572699964046478 -0.016388000920414925
          -0.05007699877023697 0.053978998214006424 -0.021828999742865562 -0.054200999438762665 0.0510919988155365 -0.009696000255644321
          -0.029482999816536903 0.07678800076246262 0.000029999999242136255 -0.03041199967265129 0.0750729963183403 0.010219000279903412
          -0.03345999866724014 0.06520000100135803 0.017400000244379044 -0.03041199967265129 0.0750729963183403 -0.010219000279903412
          -0.03345999866724014 0.06520000100135803 -0.017400000244379044 -0.04094599932432175 0.06403700262308121 0.019719000905752182
          -0.057523999363183975 0.057530999183654785 0.006541999988257885 -0.05705000087618828 0.0577629990875721 0.000004999999873689376
          -0.057523999363183975 0.057530999183654785 -0.006541999988257885 -0.049267999827861786 0.060568999499082565 0.020659999921917915
          -0.05582199990749359 0.05659199878573418 0.01953599974513054 -0.05957699939608574 0.05736999958753586 0.010005000047385693
          -0.04094599932432175 0.06403700262308121 -0.019719000905752182 -0.05582199990749359 0.05659199878573418 -0.01953599974513054
          -0.049267999827861786 0.060568999499082565 -0.020659999921917915 -0.05957699939608574 0.05736999958753586 -0.010005000047385693
          -0.030535999685525894 0.0810609981417656 0.00003099999958067201 -0.03098299913108349 0.08040200173854828 0.01130400039255619
          -0.03637700155377388 0.07328300178050995 0.01806900091469288 -0.03098299913108349 0.08040200173854828 -0.01130400039255619
          -0.03637700155377388 0.07328300178050995 -0.01806900091469288 -0.0412600003182888 0.07145900279283524 0.019809000194072723
          -0.0612419992685318 0.06643500179052353 0.00675999978557229 -0.06335999816656113 0.06609500199556351 0.010460999794304371
          -0.06056800112128258 0.06683400273323059 0.000007999999979801942 -0.0612419992685318 0.06643500179052353 -0.00675999978557229
          -0.06335999816656113 0.06609500199556351 -0.010460999794304371 -0.05132099986076355 0.06730499863624573 0.020809000357985497
          -0.05639899894595146 0.06643100082874298 0.02121400088071823 -0.06164399906992912 0.053720999509096146 0.01759899966418743
          -0.05998599901795387 0.05775799974799156 0.021577000617980957 -0.06274499744176865 0.06366900354623795 0.025800000876188278
          -0.0680989995598793 0.05971100181341171 0.0038399999029934406 -0.0412600003182888 0.07145900279283524 -0.019809000194072723
          -0.05639899894595146 0.06643100082874298 -0.02121400088071823 -0.05132099986076355 0.06730499863624573 -0.020809000357985497
          -0.05998599901795387 0.05775799974799156 -0.021577000617980957 -0.06164399906992912 0.053720999509096146 -0.01759899966418743
          -0.06274499744176865 0.06366900354623795 -0.025800000876188278 -0.0680989995598793 0.05971100181341171 -0.0038399999029934406
          -0.032437000423669815 0.08554500341415405 0.00003199999991920777 -0.03316299989819527 0.0849670022726059 0.011510999873280525
          -0.035955000668764114 0.07792499661445618 0.01912599988281727 -0.03316299989819527 0.0849670022726059 -0.011510999873280525
          -0.035955000668764114 0.07792499661445618 -0.01912599988281727 -0.04178699851036072 0.0749489963054657 0.02190300077199936
          -0.06462699919939041 0.07364799827337265 0.008617999963462353 -0.06469199806451797 0.07158300280570984 0.011233000084757805
          -0.06263100355863571 0.07336200028657913 0.000009000000318337698 -0.06462699919939041 0.07364799827337265 -0.008617999963462353
          -0.06469199806451797 0.07158300280570984 -0.011233000084757805 -0.05084399878978729 0.07257500290870667 0.022958999499678612
          -0.05911500006914139 0.0705140009522438 0.020500000566244125 -0.06580600142478943 0.06929200142621994 0.020547999069094658
          -0.07263399660587311 0.06225999817252159 0.023816000670194626 -0.06926800310611725 0.05862300097942352 0.01769999973475933
          -0.06618200242519379 0.05327000096440315 0.025474999099969864 -0.06193599849939346 0.05023299902677536 0.010847999714314938
          -0.06697399914264679 0.06317099928855896 0.024501999840140343 -0.06803199648857117 0.05509300157427788 0.022274000570178032
          -0.06868600100278854 0.05365400016307831 0.000003999999989900971 -0.061907000839710236 0.03662800043821335 0.005268000066280365
          -0.07748500257730484 0.05934000015258789 0.000004999999873689376 -0.07256200164556503 0.0650010034441948 0.007949000224471092
          -0.04178699851036072 0.0749489963054657 -0.02190300077199936 -0.05911500006914139 0.0705140009522438 -0.020500000566244125
          -0.05084399878978729 0.07257500290870667 -0.022958999499678612 -0.06580600142478943 0.06929200142621994 -0.020547999069094658
          -0.06926800310611725 0.05862300097942352 -0.01769999973475933 -0.07263399660587311 0.06225999817252159 -0.023816000670194626
          -0.06618200242519379 0.05327000096440315 -0.025474999099969864 -0.06193599849939346 0.05023299902677536 -0.010847999714314938
          -0.06803199648857117 0.05509300157427788 -0.022274000570178032 -0.06697399914264679 0.06317099928855896 -0.024501999840140343
          -0.061907000839710236 0.03662800043821335 -0.005268000066280365 -0.07256200164556503 0.0650010034441948 -0.007949000224471092
          -0.047554999589920044 0.07971499860286713 0.000009999999747378752 -0.03802900016307831 0.08278000354766846 0.01939000003039837
          -0.04496400058269501 0.0802299976348877 0.022960999980568886 -0.03802900016307831 0.08278000354766846 -0.01939000003039837
          -0.04496400058269501 0.0802299976348877 -0.022960999980568886 -0.053624000400304794 0.0757170021533966 0.023101000115275383
          -0.07489600032567978 0.07482799887657166 0.016478000208735466 -0.0662349984049797 0.07126499712467194 0.014526000246405602
          -0.07364500313997269 0.07216399908065796 0.010363999754190445 -0.06256700307130814 0.07389599829912186 0.01763099990785122
          -0.0662349984049797 0.07126499712467194 -0.014526000246405602 -0.07489600032567978 0.07482799887657166 -0.016478000208735466
          -0.07364500313997269 0.07216399908065796 -0.010363999754190445 -0.06256700307130814 0.07389599829912186 -0.01763099990785122
          -0.07129800319671631 0.0678580030798912 0.021870000287890434 -0.07151799649000168 0.0714230015873909 0.01894400082528591
          -0.08077800273895264 0.07231099903583527 0.01984499953687191 -0.07839000225067139 0.06328599900007248 0.014623000286519527
          -0.07474199682474136 0.06830400228500366 0.02191000059247017 -0.07588999718427658 0.04738999903202057 0.013020000420510769
          -0.071834996342659 0.05074699968099594 0.015938999131321907 -0.0843380019068718 0.06021000072360039 0.01756099984049797
          -0.0761680006980896 0.06141500174999237 0.01305800024420023 -0.06356599926948547 0.05143800005316734 0.012357000261545181
          -0.07408300042152405 0.04335800185799599 0.017556000500917435 -0.07086099684238434 0.06198799982666969 0.02710000053048134
          -0.07160700112581253 0.05911700055003166 0.024714000523090363 -0.07529400289058685 0.06591200083494186 0.02506200037896633
          -0.06697600334882736 0.042378999292850494 0.000003000000106112566 -0.06120000034570694 0.03570299968123436 0.006903000175952911
          -0.0826990008354187 0.04438599944114685 0.000003999999989900971 -0.07874300330877304 0.053408000618219376 0.005106000229716301
          -0.07455399632453918 0.05386300012469292 0.008549000136554241 -0.07459799945354462 0.06017100065946579 0.010714000090956688
          -0.07874300330877304 0.053408000618219376 -0.005106000229716301 -0.07455399632453918 0.05386300012469292 -0.008549000136554241
          -0.07459799945354462 0.06017100065946579 -0.010714000090956688 -0.07381799817085266 0.06509999930858612 0.011691000312566757
          -0.053624000400304794 0.0757170021533966 -0.023101000115275383 -0.07129800319671631 0.0678580030798912 -0.021870000287890434
          -0.07151799649000168 0.0714230015873909 -0.01894400082528591 -0.071834996342659 0.05074699968099594 -0.015938999131321907
          -0.07588999718427658 0.04738999903202057 -0.013020000420510769 -0.07839000225067139 0.06328599900007248 -0.014623000286519527
          -0.0843380019068718 0.06021000072360039 -0.01756099984049797 -0.0761680006980896 0.06141500174999237 -0.01305800024420023
          -0.08077800273895264 0.07231099903583527 -0.019843999296426773 -0.07474199682474136 0.06830400228500366 -0.02191000059247017
          -0.06356599926948547 0.05143800005316734 -0.012357000261545181 -0.07408300042152405 0.04335800185799599 -0.017556000500917435
          -0.07160700112581253 0.05911700055003166 -0.024714000523090363 -0.07086099684238434 0.06198799982666969 -0.02710000053048134
          -0.07529400289058685 0.06591200083494186 -0.02506200037896633 -0.06120000034570694 0.03570299968123436 -0.006903000175952911
          -0.07381799817085266 0.06509999930858612 -0.011691000312566757 -0.08504900336265564 0.06692100316286087 0.01663300022482872
          -0.07884100079536438 0.06711500138044357 0.01433899998664856 -0.08504900336265564 0.06692100316286087 -0.01663300022482872
          -0.07884100079536438 0.06711500138044357 -0.01433899998664856 -0.08271799981594086 0.06614399701356888 0.021988000720739365
          -0.08360899984836578 0.06312300264835358 0.017085999250411987 -0.07733500003814697 0.04357599839568138 0.01056899968534708
          -0.07689099758863449 0.037801001220941544 0.010001000016927719 -0.07042700052261353 0.03576099872589111 0.017305999994277954
          -0.07656499743461609 0.04953800141811371 0.009115000255405903 -0.06154999881982803 0.032962001860141754 0.013717999681830406
          -0.06501699984073639 0.03789699822664261 0.005489000119268894 -0.06947600096464157 0.04184599965810776 9.999999974752427e-7
          -0.06501699984073639 0.03789699822664261 -0.005489000119268894 -0.08202999830245972 0.047529999166727066 0.004311999771744013
          -0.08627700060606003 0.035794999450445175 -0.000015999999959603883 -0.07990500330924988 0.04314500093460083 0.004195000045001507
          -0.08202999830245972 0.047529999166727066 -0.004311999771744013 -0.07990500330924988 0.04314500093460083 -0.004195000045001507
          -0.07656499743461609 0.04953800141811371 -0.009115000255405903 -0.07689099758863449 0.037801001220941544 -0.010001000016927719
          -0.07733500003814697 0.04357599839568138 -0.01056899968534708 -0.07042700052261353 0.03576099872589111 -0.017305999994277954
          -0.08271799981594086 0.06614399701356888 -0.021988000720739365 -0.08360899984836578 0.06312300264835358 -0.017085999250411987
          -0.06154999881982803 0.032962001860141754 -0.013717999681830406 -0.07955600321292877 0.037595998495817184 0.004375999793410301
          -0.0776820033788681 0.035854000598192215 0.0051299999468028545 -0.06958500295877457 0.03675200045108795 0.007867000065743923
          -0.0734419971704483 0.031146999448537827 0 -0.06958500295877457 0.03675200045108795 -0.007867000065743923
          -0.0776820033788681 0.035854000598192215 -0.0051299999468028545 -0.09161300212144852 0.029489999637007713 -0.00002099999983329326
          -0.07955600321292877 0.037595998495817184 -0.004375999793410301 -0.0831729993224144 0.0323529988527298 0.0047610001638531685
          -0.07883899658918381 0.031332001090049744 0.004778999835252762 -0.08035100251436234 0.023231999948620796 0.003711000084877014
          -0.08201999962329865 0.021873999387025833 -0.000003000000106112566 -0.08035100251436234 0.023231999948620796 -0.003711000084877014
          -0.07883899658918381 0.031332001090049744 -0.004778999835252762 -0.09171699732542038 0.025429999455809593 0.004813999868929386
          -0.09207800030708313 0.02365499921143055 -0.00002300000051036477 -0.0831729993224144 0.0323529988527298 -0.0047610001638531685
          -0.09171699732542038 0.025429999455809593 -0.004813999868929386 -0.08842399716377258 0.02258799970149994 0.0056059998460114
          -0.08662299811840057 0.021124999970197678 -0.00002099999983329326 -0.08842399716377258 0.02258799970149994 -0.0056059998460114
          <InformationKey name="L2_NORM_RANGE" location="vtkDataArray" length="2">
            <Value index="0">
              0.064552084088
            </Value>
            <Value index="1">
              0.11021701463
            </Value>
          </InformationKey>
        </DataArray>
      </Points>
      <Verts>
        <DataArray type="Int64" Name="connectivity" format="ascii" RangeMin="1e+299" RangeMax="-1e+299">
        </DataArray>
        <DataArray type="Int64" Name="offsets" format="ascii" RangeMin="1e+299" RangeMax="-1e+299">
        </DataArray>
      </Verts>
      <Lines>
        <DataArray type="Int64" Name="connectivity" format="ascii" RangeMin="1e+299" RangeMax="-1e+299">
        </DataArray>
        <DataArray type="Int64" Name="offsets" format="ascii" RangeMin="1e+299" RangeMax="-1e+299">
        </DataArray>
      </Lines>
      <Strips>
        <DataArray type="Int64" Name="connectivity" format="ascii" RangeMin="1e+299" RangeMax="-1e+299">