<?xml version="1.0"?>
<VTKFile type="PolyData" version="0.1" byte_order="LittleEndian" header_type="UInt32" compressor="vtkZLibDataCompressor">
  <PolyData>
    <Piece NumberOfPoints="212" NumberOfVerts="0" NumberOfLines="0" NumberOfStrips="0" NumberOfPolys="424">
      <PointData Normals="Normals">
        <DataArray type="Float32" Name="Normals" NumberOfComponents="3" format="ascii" RangeMin="0.9999994094499219" RangeMax="1.0000006389614693">
          0.7745879888534546 -0.6324660181999207 0.00033400001120753586 0.6069779992103577 -0.7725849747657776 0.18625399470329285
          0.16419799625873566 -0.9864270091056824 0.000014999999621068127 0.9536790251731873 0.0730300024151802 0.291826993227005
          0.9982320070266724 -0.0594400018453598 0.0002209999947808683 0.6070759892463684 -0.7725650072097778 -0.18601900339126587
          0.9537609815597534 0.0731159970164299 -0.2915380001068115 0.5926880240440369 -0.6446130275726318 0.48290199041366577
          0.32067298889160156 -0.5932409763336182 0.7383990287780762 -0.1905529946088791 -0.9815449714660645 -0.016096999868750572
          -0.30772799253463745 -0.9514740109443665 -0.000014000000192027073 -0.2424059957265854 -0.9554110169410706 0.16861200332641602
          -0.060506001114845276 -0.6900410056114197 0.721235990524292 0.5926849842071533 -0.6446189880371094 -0.482899010181427
          0.32067200541496277 -0.5932440161705017 -0.7383970022201538 -0.19054999947547913 -0.9815459847450256 0.016070999205112457
          -0.24240000545978546 -0.9554129838943481 -0.16860899329185486 -0.060499001294374466 -0.6900460124015808 -0.7212330102920532
          0.926065981388092 0.3773620128631592 0.0001740000006975606 0.850579023361206 0.3975909948348999 0.34414801001548767
          0.6196280121803284 0.25571200251579285 0.7420729994773865 0.8506760001182556 0.39765098690986633 -0.3438369929790497
          0.6196269989013672 0.25571298599243164 -0.7420740127563477 0.2029539942741394 0.1907469928264618 0.9604300260543823
          -0.7690410017967224 -0.6380720138549805 -0.03795100003480911 -0.9305379986763 -0.36619600653648376 -0.000019999999494757503
          -0.7690410017967224 -0.6380730271339417 0.037946999073028564 -0.24249200522899628 -0.07801900058984756 0.9670109748840332
          -0.6528720259666443 -0.5328729748725891 0.5383350253105164 -0.8489609956741333 -0.4865660071372986 -0.20620200037956238
          0.20295299589633942 0.1907459944486618 -0.9604300260543823 -0.6528720259666443 -0.5328729748725891 -0.5383350253105164
          -0.24249200522899628 -0.07801900058984756 -0.9670109748840332 -0.8489609956741333 -0.4865660071372986 0.20620200037956238
          0.9981639981269836 0.06057099997997284 0.000371000001905486 0.923583984375 -0.03731900081038475 0.3815760016441345
          0.5676950216293335 0.305323988199234 0.7645260095596313 0.9237009882926941 -0.03730199858546257 -0.38129299879074097
          0.5676950216293335 0.3053230047225952 -0.7645260095596313 0.1863500028848648 0.19166600704193115 0.9636070132255554
          -0.9516370296478271 -0.14739200472831726 -0.26955899596214294 -0.9861770272254944 -0.16569599509239197 -0.00008199999865610152
          -0.9516459703445435 -0.14740000665187836 0.2695249915122986 -0.14865300059318542 0.006163999903947115 0.9888700246810913
          -0.035886000841856 -0.5021939873695374 0.8640099763870239 -0.6659389734268188 -0.6054319739341736 -0.43586400151252747
          0.1863500028848648 0.19166499376296997 -0.9636070132255554 -0.03588800132274628 -0.5021920204162598 -0.8640109896659851
          -0.14865300059318542 0.006163999903947115 -0.9888700246810913 -0.6659380197525024 -0.6054319739341736 0.43586599826812744
          0.9997029900550842 -0.024376999586820602 0.00021600000036414713 0.9413359761238098 -0.08106300234794617 0.3275910019874573
          0.5753840208053589 -0.20090100169181824 0.7928249835968018 0.9413930177688599 -0.08104600012302399 -0.32743099331855774
          0.5753849744796753 -0.2008969932794571 -0.7928249835968018 0.23076200485229492 -0.28258100152015686 0.931073009967804
          -0.9520699977874756 -0.14422999322414398 -0.2697399854660034 -0.4093259871006012 -0.00405499991029501 -0.9123790264129639
          -0.9891759753227234 -0.14673100411891937 -0.00015900000289548188 -0.9520949721336365 -0.14425800740718842 0.2696389853954315
          -0.4093259871006012 -0.00405499991029501 0.9123790264129639 0.0241870004683733 -0.2997170090675354 0.9537209868431091
          0.13863399624824524 0.0223619993776083 0.9900910258293152 0.056108999997377396 -0.9789569973945618 0.19620199501514435
          -0.09115199744701385 -0.6379669904708862 0.7646499872207642 0.033629000186920166 -0.07332900166511536 0.996740996837616
          0.6503779888153076 0.22466999292373657 -0.7256259918212891 0.2307640016078949 -0.2825770080089569 -0.9310740232467651
          0.1386300027370453 0.0223580002784729 -0.9900919795036316 0.024181000888347626 -0.29971399903297424 -0.9537230134010315
          -0.09115999937057495 -0.637969970703125 -0.7646459937095642 0.05610800161957741 -0.9789569973945618 -0.19619999825954437
          0.033629000186920166 -0.07332800328731537 -0.996740996837616 0.6505529880523682 0.2247679978609085 0.7254379987716675
          0.8132050037384033 0.5819770097732544 0.0001829999964684248 0.6677190065383911 0.6611829996109009 0.34203600883483887
          0.6064180135726929 -0.18758100271224976 0.7727029919624329 0.6677579879760742 0.6612139940261841 -0.34189799427986145
          0.6064209938049316 -0.1875779926776886 -0.7727019786834717 0.19711099565029144 -0.3235180079936981 0.9254639744758606
          -0.5835850238800049 0.7425410151481628 -0.32872799038887024 -0.2418999969959259 -0.01874599978327751 -0.9701200127601624
          -0.7407439947128296 0.6717870235443115 -0.0002280000044265762 -0.5836380124092102 0.7425600290298462 0.32858899235725403
          -0.2418999969959259 -0.01874599978327751 0.9701200127601624 -0.07318899780511856 -0.22069500386714935 0.9725930094718933
          -0.1992190033197403 0.221671000123024 0.95455402135849 -0.1842229962348938 0.6876630187034607 0.7022690176963806
          -0.11439800262451172 -0.5753189921379089 0.8098899722099304 -0.2146580070257187 -0.6385809779167175 0.7390099763870239
          0.4830879867076874 -0.11691500246524811 0.867730975151062 0.8762450218200684 -0.16356199979782104 0.4532580077648163
          0.053442999720573425 0.21855799853801727 0.9743589758872986 -0.4392009973526001 -0.6588649749755859 0.6107370257377625
          0.9758579730987549 0.21840800344944 -0.00029799999902024865 0.8749409914016724 -0.23301899433135986 -0.4244770109653473
          -0.6168069839477539 0.7871140241622925 0.00004400000034365803 -0.48743200302124023 0.4926359951496124 -0.7209159731864929
          0.1971150040626526 -0.32351699471473694 -0.9254630208015442 -0.19922000169754028 0.22166100144386292 -0.9545570015907288
          -0.07319299876689911 -0.22069799900054932 -0.9725919961929321 -0.1842229962348938 0.6876609921455383 -0.7022709846496582
          -0.21465599536895752 -0.6385809779167175 -0.7390109896659851 -0.11439800262451172 -0.5753170251846313 -0.8098909854888916
          0.4830870032310486 -0.1169160008430481 -0.867730975151062 0.8762450218200684 -0.16356199979782104 -0.4532569944858551
          -0.4392009973526001 -0.6588649749755859 -0.6107370257377625 0.053442999720573425 0.21855799853801727 -0.9743589758872986
          0.8749740123748779 -0.23311500251293182 0.42435500025749207 -0.4873470067977905 0.49268901348114014 0.7209370136260986
          -0.05042099952697754 0.9987279772758484 0 0.40174901485443115 0.7464069724082947 0.5305420160293579
          0.20793600380420685 0.5162320137023926 0.8308230042457581 0.40174800157546997 0.746408998966217 -0.5305399894714355
          0.2079399973154068 0.5162330269813538 -0.8308219909667969 -0.15642599761486053 0.44984200596809387 0.879302978515625
          -0.29746299982070923 0.9492210149765015 -0.10244700312614441 -0.1524129956960678 0.9246129989624023 0.3490850031375885
          -0.7167590260505676 0.48739299178123474 -0.4987039864063263 -0.21944600343704224 0.8978869915008545 0.381632000207901
          -0.1524129956960678 0.9246129989624023 -0.3490850031375885 -0.2974640130996704 0.9492210149765015 0.10244700312614441
          -0.7167590260505676 0.48739299178123474 0.4987039864063263 -0.21943600475788116 0.8978930115699768 -0.3816240131855011
          0.21722400188446045 0.633575975894928 0.7425600290298462 0.21315500140190125 0.6738690137863159 0.7074360251426697
          0.45055800676345825 0.358474999666214 0.8176140189170837 0.3265190124511719 -0.6504579782485962 0.6857770085334778
          0.5047039985656738 0.26569798588752747 0.8213880062103271 -0.8520569801330566 0.1134679988026619 0.5110020041465759
          -0.022758999839425087 -0.0034280000254511833 0.9997349977493286 -0.6709480285644531 -0.6744880080223083 -0.3080489933490753
          -0.9459840059280396 0.08794300258159637 -0.3120580017566681 0.9242680072784424 0.029041999951004982 0.380636990070343
          -0.02391199953854084 0.22550399601459503 0.9739490151405334 0.10323700308799744 0.008542999625205994 0.9946200251579285
          -0.7906339764595032 -0.534309983253479 0.29901599884033203 -0.9758049845695496 0.08598300069570541 -0.2010270059108734
          0.2169400006532669 -0.9761850237846375 -0.00011999999696854502 0.09719099849462509 -0.916143000125885 -0.38888999819755554
          -0.9168499708175659 0.39923200011253357 0.00021600000036414713 -0.6911839842796326 0.6252999901771545 0.3623040020465851
          -0.8713350296020508 0.44756001234054565 0.20115900039672852 -0.9334729909896851 0.2847619950771332 -0.21803399920463562
          -0.6910939812660217 0.6254929900169373 -0.36214199662208557 -0.8712909817695618 0.44771701097488403 -0.20099900662899017
          -0.9334610104560852 0.2847509980201721 0.21810199320316315 -0.8149420022964478 0.23938000202178955 -0.5277940034866333
          -0.15642200410366058 0.449849009513855 -0.8792999982833862 0.21722400188446045 0.633575975894928 -0.7425600290298462
          0.21315400302410126 0.6738700270652771 -0.7074360251426697 -0.022758999839425087 -0.0034280000254511833 -0.9997349977493286
          -0.8520569801330566 0.1134679988026619 -0.5110020041465759 0.32651999592781067 -0.6504560112953186 -0.685778021812439
          -0.6709480285644531 -0.6744880080223083 0.3080489933490753 -0.9459890127182007 0.08793500065803528 0.3120439946651459
          0.4505560100078583 0.3584800064563751 -0.8176130056381226 0.5047029852867126 0.26570001244544983 -0.8213880062103271
          0.9242680072784424 0.029041999951004982 -0.380636990070343 -0.02391199953854084 0.22550399601459503 -0.9739490151405334
          -0.7906339764595032 -0.534309983253479 -0.29901599884033203 0.10323700308799744 0.008542999625205994 -0.9946200251579285
          -0.9758049845695496 0.08598300069570541 0.2010270059108734 0.09732100367546082 -0.9161480069160461 0.3888460099697113
          -0.8149430155754089 0.2393849939107895 0.5277910232543945 -0.8810070157051086 0.33034899830818176 -0.33866798877716064
          -0.6560649871826172 0.0423550009727478 -0.7535150051116943 -0.8810070157051086 0.33035001158714294 0.33866798877716064
          -0.6560649871826172 0.0423550009727478 0.7535150051116943 -0.4864000082015991 -0.36600399017333984 0.793383002281189
          -0.5118939876556396 -0.814329981803894 0.2735530138015747 -0.8911610245704651 0.12478599697351456 0.43619000911712646
          -0.7810750007629395 -0.47120800614356995 0.4097380042076111 -0.6217079758644104 -0.662988007068634 0.4170440137386322
          -0.9059510231018066 0.3393790125846863 0.2531310021877289 0.5570089817047119 -0.7797589898109436 0.285861998796463
          0.3130530118942261 -0.8924829959869385 -0.3247640132904053 0.8340470194816589 -0.5516939759254456 -0.00008299999899463728
          0.31302499771118164 -0.8925380110740662 0.3246400058269501 -0.7985990047454834 0.2665790021419525 0.5396069884300232
          -0.8941569924354553 0.44775301218032837 -0.000859999970998615 -0.8181830048561096 0.09460499882698059 0.5671210289001465
          -0.7986689805984497 0.2665649950504303 -0.5395110249519348 -0.8178520202636719 0.09522899985313416 -0.5674930214881897
          -0.9059510231018066 0.3393790125846863 -0.2531310021877289 -0.7810739874839783 -0.47120898962020874 -0.4097389876842499
          -0.8911610245704651 0.12478599697351456 -0.43619000911712646 -0.6217089891433716 -0.662988007068634 -0.4170440137386322
          -0.48639899492263794 -0.36599698662757874 -0.7933859825134277 -0.5118939876556396 -0.814329981803894 -0.2735530138015747
          0.5570110082626343 -0.7797579765319824 -0.285861998796463 -0.6598219871520996 0.03641299903392792 0.7505390048027039
          0.10708799958229065 -0.9421669840812683 0.31757500767707825 0.05232499912381172 -0.9643189907073975 -0.2595199942588806
          0.7416210174560547 -0.6708189845085144 0.000015999999959603883 0.05232600122690201 -0.9643179774284363 0.25952398777008057
          0.1070680022239685 -0.9421529769897461 -0.31762200593948364 -0.766668975353241 0.642041027545929 -0.0013689999468624592
          -0.658731997013092 0.0360959991812706 -0.7515119910240173 -0.13689599931240082 0.2125290036201477 0.9675179719924927
          -0.015552000142633915 -0.04670099914073944 0.9987879991531372 0.6133000254631042 -0.6582779884338379 0.43650099635124207
          0.2308250069618225 -0.9729949831962585 -0.0004400000034365803 0.613290011882782 -0.6582679748535156 -0.4365310072898865
          -0.015550999902188778 -0.04670099914073944 -0.9987879991531372 -0.8358849883079529 0.0008079999824985862 0.5489029884338379
          -0.9660720229148865 -0.2582699954509735 -0.000957000011112541 -0.13613499701023102 0.21177099645137787 -0.9677910208702087
          -0.8348979949951172 0.000493000028654933 -0.5504040122032166 -0.2275789976119995 -0.6911110281944275 0.6859830021858215
          -0.5289009809494019 -0.8486829996109009 -0.000881000014487654 -0.22687500715255737 -0.6907939910888672 -0.6865360140800476
          <InformationKey name="L2_NORM_RANGE" location="vtkDataArray" length="2">
            <Value index="0">
              0.99999940945
            </Value>
            <Value index="1">
              1.000000639
            </Value>
          </InformationKey>
        </DataArray>
      </PointData>
      <CellData>
      </CellData>
      <Points>
        <DataArray type="Float32" Name="Points" NumberOfComponents="3" format="ascii" RangeMin="0.18144293562330277" RangeMax="0.22498386156513475">
          -0.0570640005171299 0.17223599553108215 0.000024000000848900527 -0.05784099921584129 0.17242899537086487 0.007987000048160553
          -0.07107199728488922 0.1704619973897934 0.000003000000106112566 -0.056992001831531525 0.17635400593280792 0.009580999612808228
          -0.056393999606370926 0.17379599809646606 0.000025999999706982635 -0.05784099921584129 0.17242899537086487 -0.007987000048160553
          -0.056992001831531525 0.17635400593280792 -0.009580999612808228 -0.062132999300956726 0.17242099344730377 0.01627199910581112
          -0.06894099712371826 0.17178599536418915 0.020302999764680862 -0.08349700272083282 0.16810299456119537 0.004801999777555466
          -0.08366599678993225 0.16835400462150574 0.000003000000106112566 -0.08390100300312042 0.16829299926757812 0.014135999605059624
          -0.07963600009679794 0.17011499404907227 0.02041199989616871 -0.062132999300956726 0.17242099344730377 -0.01627199910581112
          -0.06894099712371826 0.17178599536418915 -0.020302999764680862 -0.08349700272083282 0.16810299456119537 -0.004801999777555466
          -0.08390100300312042 0.16829299926757812 -0.014135999605059624 -0.07963600009679794 0.17011499404907227 -0.02041199989616871
          -0.05762000009417534 0.17802900075912476 0.000025999999706982635 -0.0590209998190403 0.1783140003681183 0.010257000103592873
          -0.062387000769376755 0.17651799321174622 0.017287999391555786 -0.0590209998190403 0.1783140003681183 -0.010257000103592873
          -0.062387000769376755 0.17651799321174622 -0.017287999391555786 -0.07062599807977676 0.17626899480819702 0.020997999235987663
          -0.08780200034379959 0.17083199322223663 0.004941999912261963 -0.08775100111961365 0.17071600258350372 0.000003000000106112566
          -0.08780200034379959 0.17083199322223663 -0.004941999912261963 -0.08156900107860565 0.1749590039253235 0.021146999672055244
          -0.0869629979133606 0.16850799322128296 0.01587500050663948 -0.0889350026845932 0.17206799983978271 0.009393000043928623
          -0.07062599807977676 0.17626899480819702 -0.020997999235987663 -0.0869629979133606 0.16850799322128296 -0.01587500050663948
          -0.08156900107860565 0.1749590039253235 -0.021146999672055244 -0.0889350026845932 0.17206799983978271 -0.009393000043928623
          -0.0585240013897419 0.1870889961719513 0.000029000000722589903 -0.059831999242305756 0.18594999611377716 0.00989999994635582
          -0.06463400274515152 0.17898200452327728 0.01685599982738495 -0.059831999242305756 0.18594999611377716 -0.009898999705910683
          -0.06463400274515152 0.17898200452327728 -0.01685599982738495 -0.07123400270938873 0.1801930069923401 0.019101999700069427
          -0.08842799812555313 0.1775989979505539 0.00633700005710125 -0.0879260003566742 0.17767100036144257 0.000004999999873689376
          -0.08842799812555313 0.1775989979505539 -0.00633700005710125 -0.08189699798822403 0.17841100692749023 0.020013999193906784
          -0.08707799762487411 0.17645800113677979 0.018924999982118607 -0.09038899838924408 0.17795200645923615 0.009692000225186348
          -0.07123400270938873 0.1801930069923401 -0.019101999700069427 -0.08707799762487411 0.17645800113677979 -0.018924999982118607
          -0.08189699798822403 0.17841100692749023 -0.020013999193906784 -0.09038899838924408 0.17795200645923615 -0.009692000225186348
          -0.0584149993956089 0.1907159984111786 0.000029999999242136255 -0.059000998735427856 0.19029900431632996 0.010950000025331974
          -0.06586699932813644 0.18592999875545502 0.017503999173641205 -0.059000998735427856 0.19029900431632996 -0.010950000025331974
          -0.06586699932813644 0.18592999875545502 -0.017503999173641205 -0.07089900225400925 0.18562999367713928 0.019190000370144844
          -0.09077399969100952 0.18675699830055237 0.006548000033944845 -0.0928419977426529 0.18698500096797943 0.010134000331163406
          -0.09004300087690353 0.18691499531269073 0.000007000000096013537 -0.09077399969100952 0.18675699830055237 -0.006548000033944845
          -0.0928419977426529 0.18698500096797943 -0.010134000331163406 -0.08127500116825104 0.1851229965686798 0.02015800029039383
          -0.08624699711799622 0.1856209933757782 0.020549999549984932 -0.09325599670410156 0.1755490005016327 0.017048999667167664
          -0.09067299962043762 0.17835499346256256 0.02090200036764145 -0.0928879976272583 0.184920996427536 0.024994000792503357
          -0.09911800175905228 0.17883199453353882 0.003719999920576811 -0.07089900225400925 0.18562999367713928 -0.019190000370144844
          -0.08624699711799622 0.1856209933757782 -0.020549999549984932 -0.08127500116825104 0.1851229965686798 -0.02015800029039383
          -0.09067299962043762 0.17835499346256256 -0.02090200036764145 -0.09325599670410156 0.1755490005016327 -0.017048999667167664
          -0.0928879976272583 0.184920996427536 -0.024994000792503357 -0.09911800175905228 0.17883199453353882 -0.003719999920576811
          -0.05904499813914299 0.19470900297164917 0.00003099999958067201 -0.05987200140953064 0.19442099332809448 0.011150999926030636
          -0.06428500264883041 0.1895039975643158 0.01852799952030182 -0.05987200140953064 0.19442099332809448 -0.011150999926030636
          -0.06428500264883041 0.1895039975643158 -0.01852799952030182 -0.0704990029335022 0.18851499259471893 0.02121799997985363
          -0.09209399670362473 0.19325700402259827 0.00834800023585558 -0.09268400073051453 0.19163799285888672 0.010881000198423862
          -0.09030099958181381 0.192562997341156 0.000009000000318337698 -0.09209399670362473 0.19325700402259827 -0.00834800023585558
          -0.09268400073051453 0.19163799285888672 -0.010881000198423862 -0.07948199659585953 0.18918099999427795 0.022241000086069107
          -0.08774200081825256 0.18948699533939362 0.01985899917781353 -0.09431099891662598 0.1900860071182251 0.019905999302864075
          -0.10277699679136276 0.1818159967660904 0.023072000592947006 -0.1004749983549118 0.17820900678634644 0.017146000638604164
          -0.09686999768018723 0.17300200462341309 0.024678999558091164 -0.09498900175094604 0.17295600473880768 0.010507999919354916
          -0.09724000096321106 0.18135599792003632 0.023736000061035156 -0.0981770008802414 0.17484399676322937 0.021578000858426094
          -0.09913399815559387 0.17383399605751038 0.000003999999989900971 -0.09722600132226944 0.16519400477409363 0.005102999974042177
          -0.10796800255775452 0.17902199923992157 0.000004999999873689376 -0.10206100344657898 0.18398700654506683 0.007699999958276749
          -0.0704990029335022 0.18851499259471893 -0.02121799997985363 -0.08774200081825256 0.18948699533939362 -0.01985899917781353
          -0.07948199659585953 0.18918099999427795 -0.022241000086069107 -0.09431099891662598 0.1900860071182251 -0.019905999302864075
          -0.1004749983549118 0.17820900678634644 -0.017146000638604164 -0.10277699679136276 0.1818159967660904 -0.023072000592947006
          -0.09686999768018723 0.17300200462341309 -0.024678999558091164 -0.09498900175094604 0.17295600473880768 -0.010507999919354916
          -0.0981770008802414 0.17484399676322937 -0.021578000858426094 -0.09724000096321106 0.18135599792003632 -0.023736000061035156
          -0.09722600132226944 0.16519400477409363 -0.005102999974042177 -0.10206100344657898 0.18398700654506683 -0.007699999958276749
          -0.07467299699783325 0.1936360001564026 0.000009000000318337698 -0.06498099863529205 0.1938299983739853 0.018783999606966972
          -0.07211799919605255 0.19343599677085876 0.02224300056695938 -0.06498099863529205 0.1938299983739853 -0.018783999606966972
          -0.07211799919605255 0.19343599677085876 -0.02224300056695938 -0.08127699792385101 0.19231800734996796 0.02237899973988533
          -0.10192599892616272 0.1923159956932068 0.015962999314069748 -0.09420700371265411 0.1917479932308197 0.014072000049054623
          -0.10138099640607834 0.18992799520492554 0.010040000081062317 -0.09010499715805054 0.19297100603580475 0.017078999429941177
          -0.09420700371265411 0.1917479932308197 -0.014072000049054623 -0.10192599892616272 0.1923159956932068 -0.015962999314069748
          -0.10138099640607834 0.18992799520492554 -0.010040000081062317 -0.09010499715805054 0.19297100603580475 -0.017078999429941177
          -0.10019499808549881 0.1860010027885437 0.021185999736189842 -0.09955699741840363 0.1888909935951233 0.018352000042796135
          -0.11508499830961227 0.19018100202083588 0.034703999757766724 -0.10828399658203125 0.1825850009918213 0.021043000742793083
          -0.10332699865102768 0.18707899749279022 0.02122499980032444 -0.10680799931287766 0.17026199400424957 0.012613000348210335
          -0.10255199670791626 0.17214100062847137 0.015440000221133232 -0.11460600048303604 0.18137900531291962 0.025270000100135803
          -0.1062370017170906 0.1804009974002838 0.012649999931454659 -0.09528999775648117 0.17105799913406372 0.011970999650657177
          -0.10618499666452408 0.16668400168418884 0.017007000744342804 -0.10117500275373459 0.18122699856758118 0.026252999901771545
          -0.10255700349807739 0.17909300327301025 0.023941000923514366 -0.1044130027294159 0.1852869987487793 0.024279000237584114
          -0.10051599889993668 0.16945800185203552 0.000003000000106112566 -0.09683100134134293 0.16431500017642975 0.006686999928206205
          -0.11334899812936783 0.16920900344848633 0.000003999999989900971 -0.10864699631929398 0.17574599385261536 0.004945999942719936
          -0.10460100322961807 0.1752309948205948 0.008282000198960304 -0.10505600273609161 0.17907899618148804 0.010378999635577202
          -0.10864699631929398 0.17574599385261536 -0.004945999942719936 -0.10460100322961807 0.1752309948205948 -0.008282000198960304
          -0.10505600273609161 0.17907899618148804 -0.010378999635577202 -0.10321799665689468 0.18433000147342682 0.01132499985396862
          -0.08127699792385101 0.19231800734996796 -0.02237899973988533 -0.10019499808549881 0.1860010027885437 -0.021185999736189842
          -0.09955699741840363 0.1888909935951233 -0.018352000042796135 -0.10255199670791626 0.17214100062847137 -0.015440000221133232
          -0.10680799931287766 0.17026199400424957 -0.012613000348210335 -0.10828399658203125 0.1825850009918213 -0.021043000742793083
          -0.11460600048303604 0.18137900531291962 -0.025270000100135803 -0.1062370017170906 0.1804009974002838 -0.012649999931454659
          -0.11508499830961227 0.19018100202083588 -0.034703999757766724 -0.10332699865102768 0.18707899749279022 -0.02122499980032444
          -0.09528999775648117 0.17105799913406372 -0.011970999650657177 -0.10618499666452408 0.16668400168418884 -0.017007000744342804
          -0.10255700349807739 0.17909300327301025 -0.023941000923514366 -0.10117500275373459 0.18122699856758118 -0.026252999901771545
          -0.1044130027294159 0.1852869987487793 -0.024279000237584114 -0.09683100134134293 0.16431500017642975 -0.006686999928206205
          -0.10321799665689468 0.18433000147342682 -0.01132499985396862 -0.12037699669599533 0.1867769956588745 0.029089000076055527
          -0.10739900171756744 0.18550799787044525 0.013891000300645828 -0.12037699669599533 0.1867769956588745 -0.029089000076055527
          -0.10739900171756744 0.18550799787044525 -0.013891000300645828 -0.11837100237607956 0.1856680065393448 0.03845300152897835
          -0.11992400139570236 0.183445006608963 0.02988000027835369 -0.10892800241708755 0.1675020009279251 0.01023900043219328
          -0.10861600190401077 0.16349300742149353 0.009688000194728374 -0.10539299994707108 0.16085800528526306 0.01676500029861927
          -0.10689300298690796 0.17211100459098816 0.008829999715089798 -0.09776300191879272 0.16219499707221985 0.013288999907672405
          -0.0996050015091896 0.16682200133800507 0.005317999981343746 -0.10257600247859955 0.16456599533557892 9.999999974752427e-7
          -0.0996050015091896 0.16682200133800507 -0.005317999981343746 -0.11204999685287476 0.1715870052576065 0.004176999907940626
          -0.11714000254869461 0.16374699771404266 -0.000015999999959603883 -0.11123500019311905 0.1676650047302246 0.004062999971210957
          -0.11204999685287476 0.1715870052576065 -0.004176999907940626 -0.11123500019311905 0.1676650047302246 -0.004062999971210957
          -0.10689300298690796 0.17211100459098816 -0.008829999715089798 -0.10861600190401077 0.16349300742149353 -0.009688000194728374
          -0.10892800241708755 0.1675020009279251 -0.01023900043219328 -0.10539299994707108 0.16085800528526306 -0.01676500029861927
          -0.11837100237607956 0.1856680065393448 -0.03845300152897835 -0.11992400139570236 0.183445006608963 -0.02988000027835369
          -0.09776300191879272 0.16219499707221985 -0.013288999907672405 -0.11095300316810608 0.16385699808597565 0.004238999914377928
          -0.10974399745464325 0.16209399700164795 0.004970000125467777 -0.10444100201129913 0.1614830046892166 0.007621000055223703
          -0.10904499888420105 0.15776999294757843 0 -0.10444100201129913 0.1614830046892166 -0.007621000055223703
          -0.10974399745464325 0.16209399700164795 -0.004970000125467777 -0.1230660006403923 0.15629899501800537 -0.000019999999494757503
          -0.11095300316810608 0.16385699808597565 -0.004238999914377928 -0.11515700072050095 0.15691600739955902 0.004612000193446875
          -0.11167000234127045 0.15524399280548096 0.004629000090062618 -0.11483500152826309 0.1490740031003952 0.003594999900087714
          -0.11658000200986862 0.14831900596618652 -0.000003000000106112566 -0.11483500152826309 0.1490740031003952 -0.003594999900087714
          -0.11167000234127045 0.15524399280548096 -0.004629000090062618 -0.1240909993648529 0.15307700634002686 0.0046629998832941055
          -0.12481000274419785 0.1517309993505478 -0.000022000000171829015 -0.11515700072050095 0.15691600739955902 -0.004612000193446875
          -0.1240909993648529 0.15307700634002686 -0.0046629998832941055 -0.1219170019030571 0.15015600621700287 0.005429999902844429
          -0.12070699781179428 0.1486310064792633 -0.00002099999983329326 -0.1219170019030571 0.15015600621700287 -0.005429999902844429
          <InformationKey name="L2_NORM_RANGE" location="vtkDataArray" length="2">
            <Value index="0">
              0.18144293562
            </Value>
            <Value index="1">
              0.22498386157
            </Value>
          </InformationKey>
        </DataArray>
      </Points>
      <Verts>
        <DataArray type="Int64" Name="connectivity" format="ascii" RangeMin="1e+299" RangeMax="-1e+299">
        </DataArray>
        <DataArray type="Int64" Name="offsets" format="ascii" RangeMin="1e+299" RangeMax="-1e+299">
        </DataArray>
      </Verts>
      <Lines>
        <DataArray type="Int64" Name="connectivity" format="ascii" RangeMin="1e+299" RangeMax="-1e+299">
        </DataArray>
        <DataArray type="Int64" Name="offsets" format="ascii" RangeMin="1e+299" RangeMax="-1e+299">
        </DataArray>
      </Lines>
      <Strips>
        <DataArray type="Int64" Name="connectivity" format="ascii" RangeMin="1e+299" RangeMax="-1e+299">
        </DataArray>
        <DataArray type="Int64" Name="offsets" format="ascii" RangeMin="1e+299" RangeMax="-1e+299">