<?xml version="1.0"?>
<VTKFile type="PolyData" version="0.1" byte_order="LittleEndian" header_type="UInt32" compressor="vtkZLibDataCompressor">
  <PolyData>
    <Piece NumberOfPoints="212" NumberOfVerts="0" NumberOfLines="0" NumberOfStrips="0" NumberOfPolys="424">
      <PointData Normals="Normals">
        <DataArray type="Float32" Name="Normals" NumberOfComponents="3" format="ascii" RangeMin="0.999999330847288" RangeMax="1.0000007181096688">
          0.8073130249977112 -0.5901229977607727 0.00035200000274926424 0.6501610279083252 -0.7342169880867004 0.19548800587654114
          0.23322999477386475 -0.9724220037460327 0.000014999999621068127 0.937686026096344 0.14607900381088257 0.3152869939804077
          0.9999229907989502 0.01236599963158369 0.00023799999326001853 0.6502619981765747 -0.7341939806938171 -0.19524000585079193
          0.9377769827842712 0.14617200195789337 -0.31497400999069214 0.6170470118522644 -0.6064500212669373 0.5014690160751343
          0.34536200761795044 -0.5695279836654663 0.7458969950675964 -0.33171799778938293 -0.9432410001754761 -0.016107000410556793
          -0.35743799805641174 -0.9339370131492615 0.000058000001445179805 -0.2946679890155792 -0.9457719922065735 0.13669699430465698
          -0.0038999998942017555 -0.6915820240974426 0.7222880125045776 0.6170439720153809 -0.6064580082893372 -0.5014640092849731
          0.34536200761795044 -0.5695329904556274 -0.7458930015563965 -0.33171600103378296 -0.9432420134544373 0.016087999567389488
          -0.2946619987487793 -0.9457740187644958 -0.13669300079345703 -0.0038930000737309456 -0.6915860176086426 -0.7222840189933777
          0.8844360113143921 0.4666619896888733 0.00018899999849963933 0.8019750118255615 0.4717809855937958 0.36641499400138855
          0.5633609890937805 0.308025985956192 0.7666450142860413 0.802079975605011 0.4718550145626068 -0.36608800292015076
          0.5633609890937805 0.308025985956192 -0.7666450142860413 0.16972599923610687 0.20543800294399261 0.9638400077819824
          -0.8376269936561584 -0.5376759767532349 0.09636200219392776 -0.9373810291290283 -0.34830600023269653 0.00014200000441633165
          -0.8376460075378418 -0.5376719832420349 -0.09621600061655045 -0.2517229914665222 -0.04920100048184395 0.9665480256080627
          -0.7800790071487427 -0.45526599884033203 0.4291979968547821 -0.8411070108413696 -0.42803600430488586 -0.3306429982185364
          0.16972599923610687 0.20543800294399261 -0.9638400077819824 -0.7800779938697815 -0.455269992351532 -0.42919400334358215
          -0.2517260015010834 -0.04920100048184395 -0.9665470123291016 -0.8411049842834473 -0.42803600430488586 0.33064600825309753
          0.993852972984314 0.1107029989361763 0.00038499999209307134 0.920744001865387 -0.011754999868571758 0.38999098539352417
          0.5205450057983398 0.3288489878177643 0.7879660129547119 0.9208629727363586 -0.011734999716281891 -0.3897089958190918
          0.5205450057983398 0.3288489878177643 -0.7879660129547119 0.1702979952096939 0.1679919958114624 0.9709669947624207
          -0.9657809734344482 -0.15169300138950348 -0.21037299931049347 -0.9949759840965271 -0.10011299699544907 -0.00008199999865610152
          -0.9657779932022095 -0.1516830027103424 0.21039199829101562 -0.16690300405025482 0.04965899884700775 0.9847220182418823
          -0.02373100072145462 -0.4631040096282959 0.8859859704971313 -0.6770200133323669 -0.5319899916648865 -0.5085579752922058
          0.1702979952096939 0.1679919958114624 -0.9709669947624207 -0.023730000481009483 -0.46310698986053467 -0.8859850168228149
          -0.16690300405025482 0.04965699836611748 -0.9847220182418823 -0.6770190000534058 -0.5319899916648865 0.5085579752922058
          0.999983012676239 0.005884999874979258 0.00021600000036414713 0.9434249997138977 -0.05239500105381012 0.32742199301719666
          0.5758919715881348 -0.20915700495243073 0.7903169989585876 0.9434810280799866 -0.05237700045108795 -0.32725998759269714
          0.5758919715881348 -0.20915700495243073 -0.7903169989585876 0.24250300228595734 -0.2898859977722168 0.9258289933204651
          -0.9472560286521912 -0.17298699915409088 -0.2697800099849701 -0.4062210023403168 -0.014523000456392765 -0.9136589765548706
          -0.9842849969863892 -0.1765879988670349 -0.00015900000289548188 -0.9472799897193909 -0.1730169951915741 0.269677996635437
          -0.4062210023403168 -0.014523000456392765 0.9136589765548706 0.034147001802921295 -0.29877299070358276 0.9537129998207092
          0.13784199953079224 0.02665499970316887 0.9900959730148315 -0.08504100143909454 -0.9741870164871216 0.20911000669002533
          -0.07002300024032593 -0.6404650211334229 0.7647889852523804 0.050526998937129974 -0.03226099908351898 0.9982010126113892
          0.6499789953231812 0.23964500427246094 -0.7211779952049255 0.24250000715255737 -0.28988000750541687 -0.9258310198783875
          0.1378439962863922 0.026664000004529953 -0.9900950193405151 0.03414899855852127 -0.2987709939479828 -0.9537140130996704
          -0.07002300024032593 -0.6404650211334229 -0.7647889852523804 -0.08504199981689453 -0.9741870164871216 -0.20910899341106415
          0.050526998937129974 -0.032262999564409256 -0.9982010126113892 0.6501560211181641 0.23972900211811066 0.720990002155304
          0.7948089838027954 0.606859028339386 0.00018400000408291817 0.6464880108833313 0.6817110180854797 0.34252598881721497
          0.6122270226478577 -0.16895100474357605 0.7724199891090393 0.6465269923210144 0.6817430257797241 -0.34238800406455994
          0.6122239828109741 -0.16895200312137604 -0.7724230289459229 0.20774699747562408 -0.31725001335144043 0.9253069758415222
          -0.5420939922332764 0.7552099823951721 -0.3684990108013153 -0.24684900045394897 -0.03785200044512749 -0.968313992023468
          -0.7617110013961792 0.6479169726371765 -0.0002280000044265762 -0.542156994342804 0.7552369832992554 0.3683519959449768
          -0.24685099720954895 -0.03785699978470802 0.968313992023468 -0.06583099812269211 -0.22277699410915375 0.9726439714431763
          -0.20645999908447266 0.21546000242233276 0.9544379711151123 0.005934000015258789 0.7100769877433777 0.7040989995002747
          -0.2319220006465912 -0.48774099349975586 0.841618001461029 -0.3586040139198303 -0.593487024307251 0.7205389738082886
          0.31088900566101074 -0.10785400122404099 0.9443070292472839 0.7729060053825378 -0.3904930055141449 0.5001310110092163
          0.13167700171470642 0.28386399149894714 0.9497799873352051 -0.514913022518158 -0.5837249755859375 0.6277980208396912
          0.9687399864196777 0.24807700514793396 -0.0002880000101868063 0.9025610089302063 -0.32794100046157837 -0.27899599075317383
          -0.5954520106315613 0.8033909797668457 0.00003899999865097925 -0.40289801359176636 0.5441340208053589 -0.7359279990196228
          0.20774699747562408 -0.31724900007247925 -0.9253079891204834 -0.20645900070667267 0.21546299755573273 -0.9544370174407959
          -0.06583099812269211 -0.22277399897575378 -0.9726449847221375 0.0059369998052716255 0.7100780010223389 -0.7040979862213135
          -0.3586040139198303 -0.5934879779815674 -0.7205380201339722 -0.2319210022687912 -0.48774299025535583 -0.841618001461029
          0.3108919858932495 -0.10786399990320206 -0.9443050026893616 0.7729060053825378 -0.3904930055141449 -0.5001310110092163
          -0.5149109959602356 -0.583728015422821 -0.6277959942817688 0.13167700171470642 0.28386399149894714 -0.9497799873352051
          0.9025850296020508 -0.3279840052127838 0.2788659930229187 -0.4028260111808777 0.5441740155220032 0.7359390258789062
          -0.08363600075244904 0.9964960217475891 0 0.3771899938583374 0.7587299942970276 0.5310900211334229
          0.19076499342918396 0.5223090052604675 0.8311449885368347 0.3771840035915375 0.7587370276451111 -0.5310850143432617
          0.19076499342918396 0.5223050117492676 -0.8311480283737183 -0.17127099633216858 0.4447050094604492 0.8791499733924866
          -0.11615099757909775 0.9839680194854736 -0.1353359967470169 0.0652569979429245 0.9356669783592224 0.34679800271987915
          -0.644527018070221 0.5377619862556458 -0.543503999710083 -0.24899299442768097 0.8902220129966736 0.3814539909362793
          0.06525799632072449 0.9356669783592224 -0.34679698944091797 -0.11615400016307831 0.9839680194854736 0.13533499836921692
          -0.644527018070221 0.5377619862556458 0.543503999710083 -0.2489829957485199 0.8902270197868347 -0.38144999742507935
          0.3007819950580597 0.6264430284500122 0.7190970182418823 0.4100179970264435 0.6526539921760559 0.6371250152587891
          0.41323399543762207 0.3952989876270294 0.8203520178794861 0.275287002325058 -0.5941309928894043 0.7557950019836426
          0.495945006608963 0.3012149930000305 0.8144369721412659 -0.8529300093650818 0.10521200299263 0.5113130211830139
          -0.08690900355577469 0.02066200040280819 0.9960020184516907 -0.8753979802131653 -0.29899001121520996 0.37984699010849
          -0.928866982460022 0.11242599785327911 -0.35293900966644287 0.9409279823303223 -0.10528799891471863 0.32182198762893677
          -0.2932029962539673 0.2886439859867096 0.9114369750022888 0.10315000265836716 0.00926200021058321 0.9946230053901672
          -0.7870180010795593 -0.5395740270614624 0.2991020083427429 -0.9763590097427368 0.07965800166130066 -0.2009429931640625
          -0.12643900513648987 -0.9919739961624146 -0.00014099999680183828 0.11697199940681458 -0.9132170081138611 -0.3903239965438843
          -0.9262400269508362 0.3769350051879883 0.0002390000008745119 -0.7182260155677795 0.5602800250053406 0.41259801387786865
          -0.8922370076179504 0.3951900005340576 0.21849100291728973 -0.9028480052947998 0.3660599887371063 -0.22553500533103943
          -0.7181509733200073 0.560513973236084 -0.4124099910259247 -0.8921859860420227 0.39539000391960144 -0.2183379977941513
          -0.9028350114822388 0.3660440146923065 0.22561299800872803 -0.7661030292510986 0.32819700241088867 -0.5526059865951538
          -0.17126800119876862 0.4447050094604492 -0.8791499733924866 0.3007830083370209 0.6264430284500122 -0.7190960049629211
          0.4100179970264435 0.6526539921760559 -0.6371250152587891 -0.08690900355577469 0.02066200040280819 -0.9960020184516907
          -0.8529289960861206 0.10520900040864944 -0.5113149881362915 0.27528199553489685 -0.5941370129585266 -0.7557920217514038
          -0.8754019737243652 -0.299003005027771 -0.37982699275016785 -0.9288679957389832 0.11242000013589859 0.35293999314308167
          0.41323399543762207 0.3952989876270294 -0.8203520178794861 0.495945006608963 0.3012149930000305 -0.8144369721412659
          0.9409279823303223 -0.10528799891471863 -0.32182198762893677 -0.2932029962539673 0.2886439859867096 -0.9114369750022888
          -0.7870180010795593 -0.5395740270614624 -0.2991020083427429 0.10315000265836716 0.00926200021058321 -0.9946230053901672
          -0.9763590097427368 0.07965800166130066 0.2009429931640625 0.11711099743843079 -0.9132180213928223 0.39027899503707886
          -0.7661030292510986 0.3281950056552887 0.5526059865951538 -0.8015199899673462 0.5966809988021851 0.03921100124716759
          -0.6140570044517517 0.23078300058841705 -0.7547670006752014 -0.8015239834785461 0.5966759920120239 -0.03921300172805786
          -0.6140589714050293 0.23079299926757812 0.7547630071640015 -0.48039400577545166 -0.45536699891090393 0.7495750188827515
          -0.08727999776601791 -0.37199699878692627 0.9241219758987427 -0.8919709920883179 0.11891099810600281 0.43617498874664307
          -0.7778630256652832 -0.4764249920845032 0.4098150134086609 -0.7414939999580383 -0.5680480003356934 0.3570829927921295
          -0.9127169847488403 0.32759299874305725 0.24419499933719635 0.23458099365234375 -0.9082220196723938 0.346560001373291
          -0.12227600067853928 -0.9504789710044861 -0.2857249975204468 0.3592900037765503 -0.9332259893417358 -0.00019500000053085387
          -0.1223829984664917 -0.950518012046814 0.28554999828338623 -0.8003929853439331 0.26125699281692505 0.5395510196685791
          -0.8971359729766846 0.441754013299942 -0.0008609999786131084 -0.8188120126724243 0.08921899646520615 0.5670869946479797
          -0.8004630208015442 0.26124298572540283 -0.5394539833068848 -0.8184850215911865 0.08984699845314026 -0.5674579739570618
          -0.9127169847488403 0.32759299874305725 -0.24419499933719635 -0.7778589725494385 -0.4764289855957031 -0.40981799364089966
          -0.8919690251350403 0.11890599876642227 -0.4361790120601654 -0.7414939999580383 -0.5680490136146545 -0.35708099603652954
          -0.48039400577545166 -0.45536699891090393 -0.7495750188827515 -0.0873040035367012 -0.37200799584388733 -0.924115002155304
          0.23458099365234375 -0.9082220196723938 -0.3465610146522522 -0.6600930094718933 0.03207999840378761 0.7504990100860596
          -0.07742100208997726 -0.9080269932746887 0.4116959869861603 -0.2811169922351837 -0.9526510238647461 -0.11588799953460693
          0.6859049797058105 -0.7276909947395325 -9.999999974752427e-7 -0.2811189889907837 -0.9526510238647461 0.11588399857282639
          -0.07743100076913834 -0.9080060124397278 -0.4117389917373657 -0.7710199952125549 0.6368100047111511 -0.0013729999773204327
          -0.6589959859848022 0.03176699951291084 -0.7514749765396118 -0.13840599358081818 0.2116059958934784 0.9675059914588928
          -0.015213999897241592 -0.04680300131440163 0.9987879991531372 0.6178119778633118 -0.654088020324707 0.4364359974861145
          0.23769700527191162 -0.9713389873504639 -0.00043899999582208693 0.6178010106086731 -0.6540799736976624 -0.43646499514579773
          -0.015213999897241592 -0.04680300131440163 -0.9987879991531372 -0.8359019756317139 -0.004809000063687563 0.5488579869270325
          -0.9643129706382751 -0.2647629976272583 -0.0009590000263415277 -0.13763700425624847 0.21084800362586975 -0.9677810072898865
          -0.8349090218544006 -0.005119000095874071 -0.5503640174865723 -0.22270600497722626 -0.6926680207252502 0.6860120296478271
          -0.5230270028114319 -0.8523160219192505 -0.000881000014487654 -0.2220049947500229 -0.6923490166664124 -0.6865620017051697
          <InformationKey name="L2_NORM_RANGE" location="vtkDataArray" length="2">
            <Value index="0">
              0.99999933085
            </Value>
            <Value index="1">
              1.0000007181
            </Value>
          </InformationKey>
        </DataArray>
      </PointData>
      <CellData>
      </CellData>
      <Points>
        <DataArray type="Float32" Name="Points" NumberOfComponents="3" format="ascii" RangeMin="0.15654778237587363" RangeMax="0.20193450357753565">
          -0.05170400068163872 0.14776299893856049 0.00002499999936844688 -0.052583999931812286 0.14788499474525452 0.00812199991196394
          -0.06717000156641006 0.14462999999523163 0.000003000000106112566 -0.051934998482465744 0.1519470065832138 0.009743999689817429
          -0.051075998693704605 0.1494089961051941 0.000025999999706982635 -0.052583999931812286 0.14788499474525452 -0.00812199991196394
          -0.051934998482465744 0.1519470065832138 -0.009743999689817429 -0.05736299976706505 0.14746899902820587 0.01654900051653385
          -0.06489700078964233 0.14617599546909332 0.02064800076186657 -0.08082900196313858 0.14105500280857086 0.004883999936282635
          -0.08103600144386292 0.141293004155159 0.000003000000106112566 -0.0812930017709732 0.14120900630950928 0.01437699981033802
          -0.07668100297451019 0.14346300065517426 0.02075899951159954 -0.05736299976706505 0.14746899902820587 -0.01654900051653385
          -0.06489700078964233 0.14617599546909332 -0.02064800076186657 -0.08082900196313858 0.14105500280857086 -0.004883999936282635
          -0.0812930017709732 0.14120900630950928 -0.01437699981033802 -0.07668100297451019 0.14346300065517426 -0.02075899951159954
          -0.05276099964976311 0.1535860002040863 0.00002700000004551839 -0.05434200167655945 0.1537420004606247 0.010432000271975994
          -0.057955000549554825 0.15160000324249268 0.0175819993019104 -0.05434200167655945 0.1537420004606247 -0.010432000271975994
          -0.057955000549554825 0.15160000324249268 -0.0175819993019104 -0.06711100041866302 0.15056300163269043 0.021354999393224716
          -0.08344300091266632 0.14453299343585968 0.005026000086218119 -0.08576399832963943 0.14330099523067474 0.000003000000106112566
          -0.08344300091266632 0.14453299343585968 -0.005026000086218119 -0.07919900119304657 0.14819300174713135 0.02150600031018257
          -0.08472000062465668 0.14113600552082062 0.016145000234246254 -0.08463100343942642 0.1457509994506836 0.009553000330924988
          -0.06711100041866302 0.15056300163269043 -0.021354999393224716 -0.08472000062465668 0.14113600552082062 -0.016145000234246254
          -0.07919900119304657 0.14819300174713135 -0.02150600031018257 -0.08463100343942642 0.1457509994506836 -0.009553000330924988
          -0.05418499931693077 0.1620510071516037 0.000029000000722589903 -0.05547900125384331 0.16084900498390198 0.010068000294268131
          -0.06064299866557121 0.15388600528240204 0.017142999917268753 -0.05547900125384331 0.16084900498390198 -0.010068000294268131
          -0.06064299866557121 0.15388600528240204 -0.017142999917268753 -0.06808499991893768 0.15448500216007233 0.019426999613642693
          -0.08428700268268585 0.15139099955558777 0.006444999948143959 -0.0837780013680458 0.1514820009469986 0.000004999999873689376
          -0.08428700268268585 0.15139099955558777 -0.006444999948143959 -0.077674001455307 0.1524379998445511 0.020354999229311943
          -0.08287899941205978 0.1502770036458969 0.01924699917435646 -0.08629100024700165 0.1516840010881424 0.009856999851763248
          -0.06808499991893768 0.15448500216007233 -0.019426999613642693 -0.08287899941205978 0.1502770036458969 -0.01924699917435646
          -0.077674001455307 0.1524379998445511 -0.020354999229311943 -0.08629100024700165 0.1516840010881424 -0.009856999851763248
          -0.05418600142002106 0.16574299335479736 0.000029999999242136255 -0.05476899817585945 0.16529899835586548 0.011137000285089016
          -0.06161300092935562 0.16062499582767487 0.017802000045776367 -0.05476899817585945 0.16529899835586548 -0.011137000285089016
          -0.06161300092935562 0.16062499582767487 -0.017802000045776367 -0.0667169988155365 0.16015000641345978 0.019516000524163246
          -0.08695299923419952 0.1606229990720749 0.006659999955445528 -0.08906099945306778 0.16078400611877441 0.010307000018656254
          -0.08621399849653244 0.1608079969882965 0.000007999999979801942 -0.08695299923419952 0.1606229990720749 -0.006659999955445528
          -0.08906099945306778 0.16078400611877441 -0.010307000018656254 -0.0772479996085167 0.15928299725055695 0.020501000806689262
          -0.08231599628925323 0.159621000289917 0.020899999886751175 -0.08912999927997589 0.1491439938545227 0.01733900047838688
          -0.08659099787473679 0.15208399295806885 0.021258000284433365 -0.0890439972281456 0.15868499875068665 0.025419000536203384
          -0.09590599685907364 0.15562699735164642 0.003782999934628606 -0.0667169988155365 0.16015000641345978 -0.019516000524163246
          -0.08231599628925323 0.159621000289917 -0.020899999886751175 -0.0772479996085167 0.15928299725055695 -0.020501000806689262
          -0.08659099787473679 0.15208399295806885 -0.021258000284433365 -0.08912999927997589 0.1491439938545227 -0.01733900047838688
          -0.0890439972281456 0.15868499875068665 -0.025419000536203384 -0.09590599685907364 0.15562699735164642 -0.003782999934628606
          -0.054947998374700546 0.16978099942207336 0.00003099999958067201 -0.05578000098466873 0.1694599986076355 0.011340999975800514
          -0.060113999992609024 0.16431200504302979 0.018843000754714012 -0.05578000098466873 0.1694599986076355 -0.011340999975800514
          -0.060113999992609024 0.16431200504302979 -0.018843000754714012 -0.06639999896287918 0.16309599578380585 0.021578999236226082
          -0.08849400281906128 0.16718600690364838 0.008489999920129776 -0.08904299885034561 0.16551999747753143 0.01106599997729063
          -0.08664999902248383 0.16654199361801147 0.000009000000318337698 -0.08849400281906128 0.16718600690364838 -0.008489999920129776
          -0.08904299885034561 0.16551999747753143 -0.01106599997729063 -0.07554999738931656 0.16346900165081024 0.02261899970471859
          -0.08395399898290634 0.16349999606609344 0.020197000354528427 -0.09064900130033493 0.16388800740242004 0.020244000479578972
          -0.09964700043201447 0.1586350053548813 0.02346399985253811 -0.09728199988603592 0.15498299896717072 0.017438000068068504
          -0.09358199685811996 0.14971399307250977 0.025098999962210655 -0.09081199765205383 0.1464489996433258 0.01068700011819601
          -0.09401299804449081 0.1582069993019104 0.024139000102877617 -0.0949229970574379 0.15157799422740936 0.02194499969482422
          -0.09588900208473206 0.1505430042743683 0.000003999999989900971 -0.09364499896764755 0.1367270052433014 0.005189999938011169
          -0.10498099774122238 0.15726199746131897 0.000004999999873689376 -0.09893299639225006 0.160848006606102 0.007830999791622162
          -0.06639999896287918 0.16309599578380585 -0.021578999236226082 -0.08395399898290634 0.16349999606609344 -0.020197000354528427
          -0.07554999738931656 0.16346900165081024 -0.02261899970471859 -0.09064900130033493 0.16388800740242004 -0.020244000479578972
          -0.09728199988603592 0.15498299896717072 -0.017438000068068504 -0.09964700043201447 0.1586350053548813 -0.02346399985253811
          -0.09358199685811996 0.14971399307250977 -0.025097999721765518 -0.09081199765205383 0.1464489996433258 -0.01068700011819601
          -0.0949229970574379 0.15157799422740936 -0.02194499969482422 -0.09401299804449081 0.1582069993019104 -0.024139000102877617
          -0.09364499896764755 0.1367270052433014 -0.005189999938011169 -0.09893299639225006 0.160848006606102 -0.007830999791622162
          -0.07079900056123734 0.16816100478172302 0.000009000000318337698 -0.060954999178647995 0.16868700087070465 0.0191040001809597
          -0.06819599866867065 0.16804499924182892 0.022621000185608864 -0.060954999178647995 0.16868700087070465 -0.0191040001809597
          -0.06819599866867065 0.16804499924182892 -0.022621000185608864 -0.07747100293636322 0.16659699380397797 0.022760000079870224
          -0.09885100275278091 0.1693190038204193 0.016234999522566795 -0.09059400111436844 0.16558000445365906 0.014310999773442745
          -0.09827999770641327 0.16689500212669373 0.010211000218987465 -0.08646299690008163 0.16696199774742126 0.01737000048160553
          -0.09059400111436844 0.16558000445365906 -0.014310999773442745 -0.09885100275278091 0.1693190038204193 -0.016234999522566795
          -0.09827999770641327 0.16689500212669373 -0.010211000218987465 -0.08646299690008163 0.16696199774742126 -0.01737000048160553
          -0.09704799950122833 0.16290999948978424 0.021546000614762306 -0.09641899913549423 0.16585400700569153 0.018664000555872917
          -0.1072319969534874 0.1686280071735382 0.029041999951004982 -0.10707300156354904 0.16079799830913544 0.021400999277830124
          -0.10024099797010422 0.16398300230503082 0.02158600091934204 -0.10367000102996826 0.14685499668121338 0.01282699964940548
          -0.09935300052165985 0.14879700541496277 0.015703000128269196 -0.11349300295114517 0.15952500700950623 0.025699999183416367
          -0.10322999954223633 0.15867699682712555 0.012865000404417515 -0.09196200221776962 0.14774799346923828 0.012174000032246113
          -0.10301300138235092 0.14322100579738617 0.01729699969291687 -0.0980139970779419 0.15804700553417206 0.026698999106884003
          -0.09940499812364578 0.15586699545383453 0.024348000064492226 -0.10133399814367294 0.16215300559997559 0.024692000821232796
          -0.0970190018415451 0.14103899896144867 0.000003000000106112566 -0.09323800355195999 0.13583600521087646 0.006800999864935875
          -0.11031399667263031 0.1457359939813614 0.000003999999989900971 -0.10557600110769272 0.15241800248622894 0.005030999891459942
          -0.10145799815654755 0.1519239991903305 0.008422000333666801 -0.10202000290155411 0.15734100341796875 0.010556000284850597
          -0.10557600110769272 0.15241800248622894 -0.005030999891459942 -0.10145799815654755 0.1519239991903305 -0.008422000333666801
          -0.10202000290155411 0.15734100341796875 -0.010556000284850597 -0.10011199861764908 0.161188006401062 0.011517999693751335
          -0.07747100293636322 0.16659699380397797 -0.022760000079870224 -0.09704799950122833 0.16290999948978424 -0.021546000614762306
          -0.09641899913549423 0.16585400700569153 -0.018664000555872917 -0.09935300052165985 0.14879700541496277 -0.015703000128269196
          -0.10367000102996826 0.14685499668121338 -0.01282699964940548 -0.10707300156354904 0.16079799830913544 -0.021400999277830124
          -0.11349300295114517 0.15952500700950623 -0.025699999183416367 -0.10322999954223633 0.15867699682712555 -0.012865000404417515
          -0.1072319969534874 0.1686280071735382 -0.029041999951004982 -0.10024099797010422 0.16398300230503082 -0.02158600091934204
          -0.09196200221776962 0.14774799346923828 -0.012174000032246113 -0.10301300138235092 0.14322100579738617 -0.01729699969291687
          -0.09940499812364578 0.15586699545383453 -0.024348000064492226 -0.0980139970779419 0.15804700553417206 -0.026698999106884003
          -0.10133399814367294 0.16215300559997559 -0.024692000821232796 -0.09323800355195999 0.13583600521087646 -0.006800999864935875
          -0.10011199861764908 0.161188006401062 -0.011517999693751335 -0.11259199678897858 0.16512799263000488 0.024342000484466553
          -0.10444600135087967 0.16386300325393677 0.014127000235021114 -0.11259199678897858 0.16512799263000488 -0.024342000484466553
          -0.10444600135087967 0.16386300325393677 -0.014127000235021114 -0.11054400354623795 0.164014995098114 0.03217900171875954
          -0.11210799962282181 0.16174200177192688 0.025004999712109566 -0.10580699890851974 0.14403200149536133 0.010413000360131264
          -0.10546299815177917 0.139956995844841 0.009852999821305275 -0.1021680012345314 0.1373009979724884 0.0170499999076128
          -0.1037679985165596 0.14873400330543518 0.008980000391602516 -0.09417200088500977 0.13367299735546112 0.013515000231564045
          -0.09607499837875366 0.1383659988641739 0.005408000200986862 -0.09932799637317657 0.14109300076961517 9.999999974752427e-7
          -0.09607499837875366 0.1383659988641739 -0.005408000200986862 -0.10900899767875671 0.14816400408744812 0.004248000215739012
          -0.11413399875164032 0.14015300571918488 -0.000015999999959603883 -0.10815399885177612 0.1441809982061386 0.004131999798119068
          -0.10900899767875671 0.14816400408744812 -0.004248000215739012 -0.10815399885177612 0.1441809982061386 -0.004131999798119068
          -0.1037679985165596 0.14873400330543518 -0.008980000391602516 -0.10546299815177917 0.139956995844841 -0.009852999821305275
          -0.10580699890851974 0.14403200149536133 -0.010413000360131264 -0.1021680012345314 0.1373009979724884 -0.0170499999076128
          -0.11054400354623795 0.164014995098114 -0.03217900171875954 -0.11210799962282181 0.16174200177192688 -0.025004999712109566
          -0.09417200088500977 0.13367299735546112 -0.013515000231564045 -0.10784199833869934 0.14031000435352325 0.004310999996960163
          -0.10660099983215332 0.13852599263191223 0.005053999833762646 -0.10120400041341782 0.13794399797916412 0.007751000113785267
          -0.10586199909448624 0.1341329962015152 0 -0.10120400041341782 0.13794399797916412 -0.007751000113785267
          -0.10660099983215332 0.13852599263191223 -0.005053999833762646 -0.12011100351810455 0.13253499567508698 -0.00002099999983329326
          -0.10784199833869934 0.14031000435352325 -0.004310999996960163 -0.11207199841737747 0.13322100043296814 0.004689999856054783
          -0.10851500183343887 0.1315460056066513 0.0047079999931156635 -0.11169199645519257 0.12524700164794922 0.0036559998989105225
          -0.11346200108528137 0.12446700036525726 -0.000003000000106112566 -0.11169199645519257 0.12524700164794922 -0.0036559998989105225
          -0.10851500183343887 0.1315460056066513 -0.0047079999931156635 -0.1211320012807846 0.12925100326538086 0.004741999786347151
          -0.12185399979352951 0.12787699699401855 -0.000022000000171829015 -0.11207199841737747 0.13322100043296814 -0.004689999856054783
          -0.1211320012807846 0.12925100326538086 -0.004741999786347151 -0.11890199780464172 0.1262959986925125 0.0055229999125003815
          -0.1176609992980957 0.12475399672985077 -0.00002099999983329326 -0.11890199780464172 0.1262959986925125 -0.0055229999125003815
          <InformationKey name="L2_NORM_RANGE" location="vtkDataArray" length="2">
            <Value index="0">
              0.15654778238
            </Value>
            <Value index="1">
              0.20193450358
            </Value>
          </InformationKey>
        </DataArray>
      </Points>
      <Verts>
        <DataArray type="Int64" Name="connectivity" format="ascii" RangeMin="1e+299" RangeMax="-1e+299">
        </DataArray>
        <DataArray type="Int64" Name="offsets" format="ascii" RangeMin="1e+299" RangeMax="-1e+299">
        </DataArray>
      </Verts>
      <Lines>
        <DataArray type="Int64" Name="connectivity" format="ascii" RangeMin="1e+299" RangeMax="-1e+299">
        </DataArray>
        <DataArray type="Int64" Name="offsets" format="ascii" RangeMin="1e+299" RangeMax="-1e+299">
        </DataArray>
      </Lines>
      <Strips>
        <DataArray type="Int64" Name="connectivity" format="ascii" RangeMin="1e+299" RangeMax="-1e+299">
        </DataArray>