<?xml version="1.0"?>
<VTKFile type="PolyData" version="0.1" byte_order="LittleEndian" header_type="UInt32" compressor="vtkZLibDataCompressor">
  <PolyData>
    <Piece NumberOfPoints="212" NumberOfVerts="0" NumberOfLines="0" NumberOfStrips="0" NumberOfPolys="424">
      <PointData Normals="Normals">
        <DataArray type="Float32" Name="Normals" NumberOfComponents="3" format="ascii" RangeMin="0.9999992451719437" RangeMax="1.0000006744126364">
          0.4509580135345459 -0.8925449848175049 0.00030499999411404133 0.22708800435066223 -0.9584770202636719 0.17249299585819244
          -0.29795899987220764 -0.9545789957046509 0.000012999999853491317 0.9099529981613159 -0.3248400092124939 0.25780901312828064
          0.8906570076942444 -0.45467498898506165 0.0001990000018849969 0.22718599438667297 -0.9584919810295105 -0.1722780019044876
          0.9100440144538879 -0.32478898763656616 -0.25755199790000916 0.2851000130176544 -0.8421570062637329 0.4577000141143799
          0.048489999026060104 -0.6837310194969177 0.7281209826469421 -0.6159150004386902 -0.7876819968223572 -0.014367000199854374
          -0.7087119817733765 -0.7054979801177979 -0.000009999999747378752 -0.6499940156936646 -0.7438910007476807 0.155349001288414
          -0.37666600942611694 -0.6035289764404297 0.702763020992279 0.28509700298309326 -0.8421599864959717 -0.4576970040798187
          0.04848799854516983 -0.6837350130081177 -0.7281180024147034 -0.6159039735794067 -0.7876899838447571 0.014341999776661396
          -0.6499860286712646 -0.7439000010490417 -0.15534499287605286 -0.3766629993915558 -0.6035360097885132 -0.7027580142021179
          0.99891197681427 -0.046643998473882675 0.00014899999951012433 0.9534940123558044 -0.0003980000037699938 0.3014119863510132
          0.7190510034561157 -0.037126000970602036 0.6939650177955627 0.9535800218582153 -0.0003859999997075647 -0.30114099383354187
          0.7190520167350769 -0.0371289998292923 -0.6939640045166016 0.3016650080680847 0.08910500258207321 0.9492409825325012
          -0.9719380140304565 -0.23297399282455444 -0.032545000314712524 -0.9984580278396606 0.05552000179886818 -0.000009999999747378752
          -0.9719370007514954 -0.23297899961471558 0.03254900127649307 -0.2726750075817108 0.03499700129032135 0.9614689946174622
          -0.8391460180282593 -0.21514800190925598 0.49954500794410706 -0.980443000793457 -0.07878699898719788 -0.18034300208091736
          0.3016659915447235 0.08911299705505371 -0.9492400288581848 -0.8391450047492981 -0.21515299379825592 -0.49954500794410706
          -0.2726759910583496 0.0350009985268116 -0.9614689946174622 -0.9804450273513794 -0.07878000289201736 0.18033799529075623
          0.9394919872283936 -0.3425709903240204 0.0003209999995306134 0.8471239805221558 -0.40585601329803467 0.3430190086364746
          0.6963880062103271 0.0354669988155365 0.7167890071868896 0.8472149968147278 -0.4058780074119568 -0.34276899695396423
          0.696386992931366 0.03547300025820732 -0.7167890071868896 0.28845399618148804 0.09944099932909012 0.9523159861564636
          -0.8889039754867554 0.38595300912857056 -0.24675600230693817 -0.8851569890975952 0.4652929902076721 -0.00006800000119255856
          -0.8889099955558777 0.3859559893608093 0.24673299491405487 -0.14518100023269653 0.06816499680280685 0.9870539903640747
          -0.26018500328063965 -0.5052059888839722 0.8228430151939392 -0.865352988243103 -0.268002986907959 -0.4234830141067505
          0.28845199942588806 0.09944900125265121 -0.9523159861564636 -0.26018598675727844 -0.5052090287208557 -0.8228409886360168
          -0.1451749950647354 0.06815899908542633 -0.9870560169219971 -0.8653550148010254 -0.268000990152359 0.42348000407218933
          0.9083920121192932 -0.41811901330947876 0.0001880000054370612 0.8399770259857178 -0.45493200421333313 0.2957639992237091
          0.4782879948616028 -0.43495601415634155 0.7629250288009644 0.8400229811668396 -0.45493900775909424 -0.29562199115753174
          0.4782809913158417 -0.43495500087738037 -0.7629290223121643 0.10133100301027298 -0.3739140033721924 0.9219110012054443
          -0.8763660192489624 0.41690000891685486 -0.24120000004768372 -0.3372490108013153 0.29213500022888184 -0.8949419856071472
          -0.9265530109405518 0.3761639893054962 -0.00013800000306218863 -0.8763930201530457 0.4168899953365326 0.24111799895763397
          -0.33724498748779297 0.292138010263443 0.8949419856071472 -0.1240219995379448 -0.29907798767089844 0.9461349844932556
          0.2392899990081787 0.012621000409126282 0.9708660244941711 -0.4854530096054077 -0.8640900254249573 0.13298299908638
          -0.5823959708213806 -0.4314340054988861 0.6889700293540955 0.032166000455617905 -0.028379999101161957 0.9990800023078918
          0.7029560208320618 -0.1563500016927719 -0.693835973739624 0.10132700204849243 -0.3739199936389923 -0.9219099879264832
          0.23928700387477875 0.012618999928236008 -0.9708669781684875 -0.12402000278234482 -0.29908299446105957 -0.946133017539978
          -0.5823990106582642 -0.43142199516296387 -0.6889740228652954 -0.48545700311660767 -0.8640879988670349 -0.13298200070858002
          0.03217099979519844 -0.02838199958205223 -0.9990789890289307 0.7031300067901611 -0.15634599328041077 0.6936600208282471
          0.9819390177726746 0.18919600546360016 0.000155999994603917 0.9029889702796936 0.30939099192619324 0.2981410026550293
          0.5112519860267639 -0.4385640025138855 0.739109992980957 0.9030259847640991 0.30939799547195435 -0.29802098870277405
          0.5112490057945251 -0.4385649859905243 -0.7391110062599182 0.044899001717567444 -0.3988490104675293 0.9159169793128967
          -0.20072700083255768 0.9210820198059082 -0.333640992641449 -0.2725380063056946 0.09769900143146515 -0.9571719765663147
          -0.4261550009250641 0.9046499729156494 -0.0002119999990100041 -0.20075799524784088 0.9211230278015137 0.33351099491119385
          -0.27253401279449463 0.09771300107240677 0.9571710228919983 -0.22507399320602417 -0.09965100139379501 0.969232976436615
          -0.20215100049972534 0.38195499777793884 0.9018009901046753 0.25697898864746094 0.689873993396759 0.67678302526474
          -0.37826600670814514 -0.4902760088443756 0.7852029800415039 -0.5510830283164978 -0.40954500436782837 0.7270349860191345
          0.419856995344162 -0.2738009989261627 0.8653050065040588 0.6823970079421997 -0.575829029083252 0.4502829909324646
          0.22798000276088715 0.18944799900054932 0.9550579786300659 -0.6923689842224121 -0.33446401357650757 0.6393420100212097
          0.9151589870452881 -0.40309301018714905 -0.00023299999884329736 0.5249230265617371 -0.7321919798851013 -0.43399301171302795
          -0.1862960010766983 0.9824939966201782 0.00003400000059627928 -0.2384600043296814 0.6539099812507629 -0.7180100083351135
          0.04489700123667717 -0.3988569974899292 -0.915913999080658 -0.20215100049972534 0.38195499777793884 -0.9018009901046753
          -0.22507399320602417 -0.09965100139379501 -0.969232976436615 0.25697600841522217 0.6898750066757202 -0.67678302526474
          -0.5510830283164978 -0.40954700112342834 -0.7270339727401733 -0.3783999979496002 -0.4895069897174835 -0.7856190204620361
          0.41988199949264526 -0.27379199862480164 -0.8652960062026978 0.6824010014533997 -0.575829029083252 -0.45027801394462585
          -0.6923649907112122 -0.3344779908657074 -0.639339029788971 0.22798199951648712 0.18944300711154938 -0.9550579786300659
          0.5248939990997314 -0.732250988483429 0.43393099308013916 -0.23836900293827057 0.6539180278778076 0.7180330157279968
          0.3792319893836975 0.9253010153770447 -0.000003000000106112566 0.7236949801445007 0.4866670072078705 0.4893069863319397
          0.45385000109672546 0.362064003944397 0.8142049908638 0.723691999912262 0.4866749942302704 -0.48930200934410095
          0.45385199785232544 0.36206701397895813 -0.8142030239105225 -0.08892200142145157 0.4781230092048645 0.8737800121307373
          0.218081995844841 0.9675300121307373 -0.12777499854564667 0.3411020040512085 0.8807839751243591 0.3284350037574768
          -0.4123690128326416 0.7602099776268005 -0.5020290017127991 0.11755300313234329 0.9293739795684814 0.34992098808288574
          0.3411020040512085 0.8807830214500427 -0.32843801379203796 0.2183219939470291 0.9674400091171265 0.12804700434207916
          -0.4123690128326416 0.7602099776268005 0.5020290017127991 0.11756700277328491 0.9293749928474426 -0.3499149978160858
          0.5315729975700378 0.46620801091194153 0.7071629762649536 0.5978490114212036 0.47600099444389343 0.6449800133705139
          0.706155002117157 0.1410370022058487 0.6938689947128296 -0.1282780021429062 -0.8206430077552795 0.5568569898605347
          0.6310489773750305 0.017822999507188797 0.7755380272865295 -0.7163500189781189 0.5428619980812073 0.43834200501441956
          -0.11705099791288376 0.23255600035190582 0.9655140042304993 -0.8973720073699951 -0.3625440001487732 -0.25156500935554504
          -0.794588029384613 0.5430989861488342 -0.27142900228500366 0.7833290100097656 -0.5404719710350037 0.30706098675727844
          0.013245999813079834 0.2592740058898926 0.9657130241394043 0.11706600338220596 -0.048847001045942307 0.9919220209121704
          -0.9580119848251343 -0.14191900193691254 0.24914099276065826 -0.8650180101394653 0.45958301424980164 -0.20131400227546692
          -0.2725149989128113 -0.9621520042419434 -0.0001250000059371814 -0.3875719904899597 -0.8480309844017029 -0.36142998933792114
          -0.6764490008354187 0.7364889979362488 0.0001849999971454963 -0.30880001187324524 0.8902770280838013 0.3347359895706177
          -0.5652269721031189 0.8084189891815186 0.16424599289894104 -0.7482600212097168 0.6325690150260925 -0.1999099999666214
          -0.30861198902130127 0.890408992767334 -0.33456099033355713 -0.5650889873504639 0.8085489869117737 -0.16408200562000275
          -0.7482470273971558 0.6325600147247314 0.19998300075531006 -0.6774640083312988 0.546226978302002 -0.4926230013370514
          -0.08891700208187103 0.47812598943710327 -0.8737789988517761 0.531574010848999 0.46621501445770264 -0.7071580290794373
          0.5974209904670715 0.4764600098133087 -0.6450380086898804 -0.1170480027794838 0.23255200684070587 -0.9655150175094604
          -0.7163509726524353 0.5428599715232849 -0.43834298849105835 -0.12682299315929413 -0.8192219734191895 -0.5592780113220215
          -0.8964130282402039 -0.3654960095882416 0.25071001052856445 -0.794588029384613 0.5430989861488342 0.27142900228500366
          0.7047240138053894 0.14370200037956238 -0.6947770118713379 0.6305400133132935 0.019432000815868378 -0.7759130001068115
          0.7833269834518433 -0.5404729843139648 -0.3070639967918396 0.013251000083982944 0.2592720091342926 -0.9657130241394043
          -0.9580100178718567 -0.1419229954481125 -0.24914699792861938 0.11706999689340591 -0.048850998282432556 -0.9919210076332092
          -0.8650230169296265 0.4595809876918793 0.2012999951839447 -0.38748899102211 -0.8480880260467529 0.3613860011100769
          -0.6774640083312988 0.546226978302002 0.4926230013370514 -0.6682519912719727 0.6651430130004883 -0.333202987909317
          -0.6203889846801758 0.32747000455856323 -0.7126579880714417 -0.6686080098152161 0.6638069748878479 0.33514800667762756
          -0.6205660104751587 0.3247250020503998 0.7137579917907715 -0.7095419764518738 -0.008608999662101269 0.7046099901199341
          -0.8636320233345032 -0.501567006111145 0.05069199949502945 -0.7875810265541077 0.47493401169776917 0.39262399077415466
          -0.9280750155448914 -0.08925600349903107 0.3615399897098541 -0.8416240215301514 -0.358117014169693 0.4042530059814453
          -0.6448789834976196 0.7278820276260376 0.2330629974603653 0.16979099810123444 -0.9515810012817383 0.2562519907951355
          -0.037693001329898834 -0.9591190218925476 -0.2804819941520691 0.6020529866218567 -0.7984560132026672 -0.00004199999966658652
          -0.037723999470472336 -0.9591439962387085 0.28039100766181946 -0.6117910146713257 0.623071014881134 0.4873340129852295
          -0.7456809878349304 0.6662989854812622 -0.0022410000674426556 -0.7439799904823303 0.40633898973464966 0.5304539799690247
          -0.6118429899215698 0.6230829954147339 -0.48725399374961853 -0.7436370253562927 0.406605988740921 -0.5307310223579407
          -0.6448799967765808 0.7278820276260376 -0.23305800557136536 -0.928072988986969 -0.08925999701023102 -0.3615419864654541
          -0.7875840067863464 0.47492799162864685 -0.39262500405311584 -0.8416249752044678 -0.3581179976463318 -0.40425199270248413
          -0.7092570066452026 -0.006058000028133392 -0.7049239873886108 -0.8628730177879333 -0.5026940107345581 -0.05243600159883499
          0.16979500651359558 -0.9515799880027771 -0.2562519907951355 -0.6594589948654175 0.2808629870414734 0.697301983833313
          -0.1755709946155548 -0.9196180105209351 0.35139399766921997 -0.3347960114479065 -0.9060819745063782 -0.25870200991630554
          0.48964399099349976 -0.8719220161437988 -0.00011100000119768083 -0.3347940146923065 -0.9060819745063782 0.2587049901485443
          -0.1719069927930832 -0.9179779887199402 -0.3574410080909729 -0.5320209860801697 0.8467260003089905 -0.002956999931484461
          -0.6603019833564758 0.2789649963378906 -0.6972659826278687 -0.12803199887275696 0.23393599689006805 0.9637849926948547
          -0.09471700340509415 -0.03252999857068062 0.9949730038642883 0.3961699903011322 -0.7854170203208923 0.47557199001312256
          -0.07877100259065628 -0.996891975402832 -0.0009800000116229057 0.39292898774147034 -0.7840960025787354 -0.48041799664497375
          -0.10416799783706665 -0.030048999935388565 -0.9941059947013855 -0.7611119747161865 0.3421429991722107 0.5510410070419312
          -0.9827269911766052 0.18505600094795227 -0.0009469999931752682 -0.13398699462413788 0.2343900054693222 -0.9628649950027466
          -0.7604179978370667 0.3411479890346527 -0.5526139736175537 -0.48874399065971375 -0.5763720273971558 0.6549230217933655
          -0.8012909889221191 -0.5982739925384521 -0.0010989999864250422 -0.48732298612594604 -0.5764409899711609 -0.6559209823608398
          <InformationKey name="L2_NORM_RANGE" location="vtkDataArray" length="2">
            <Value index="0">
              0.99999924517
            </Value>
            <Value index="1">
              1.0000006744
            </Value>
          </InformationKey>
        </DataArray>
      </PointData>
      <CellData>
      </CellData>
      <Points>
        <DataArray type="Float32" Name="Points" NumberOfComponents="3" format="ascii" RangeMin="0.34156986712940424" RangeMax="0.3886961826996043">
          -0.04223199933767319 0.3389489948749542 0.00010599999950500205 -0.04270799830555916 0.339370995759964 0.0072570000775158405
          -0.05249499902129173 0.34262800216674805 0.0000870000003487803 -0.04085100069642067 0.34201401472091675 0.008689000271260738
          -0.04126499965786934 0.33987998962402344 0.00010800000018207356 -0.04270799830555916 0.339370995759964 -0.007087999954819679
          -0.04085100069642067 0.34201401472091675 -0.00851999968290329 -0.04567800089716911 0.3409009873867035 0.014697999693453312
          -0.050592001527547836 0.34286001324653625 0.018317999318242073 -0.06185099855065346 0.3453029990196228 0.004397000186145306
          -0.061886001378297806 0.3455510139465332 0.0000870000003487803 -0.06206899881362915 0.3455899953842163 0.01278000045567751
          -0.05852999910712242 0.34543099999427795 0.01841600053012371 -0.04567800089716911 0.3409009873867035 -0.014529000036418438
          -0.050592001527547836 0.34286001324653625 -0.0181489996612072 -0.06185099855065346 0.3453029990196228 -0.004228000063449144
          -0.06206899881362915 0.3455899953842163 -0.01261099986732006 -0.05852999910712242 0.34543099999427795 -0.018247000873088837
          -0.04074399918317795 0.3434959948062897 0.00010800000018207356 -0.041620999574661255 0.34421101212501526 0.009296000003814697
          -0.044530000537633896 0.3440670073032379 0.015610000118613243 -0.041620999574661255 0.34421101212501526 -0.009127000346779823
          -0.044530000537633896 0.3440670073032379 -0.01544100046157837 -0.050308000296354294 0.3468270003795624 0.018942000344395638
          -0.06394600123167038 0.3488909900188446 0.004523000214248896 -0.06394799798727036 0.34878599643707275 0.0000870000003487803
          -0.06394600123167038 0.3488909900188446 -0.004354000091552734 -0.05829999968409538 0.3497590124607086 0.019076000899076462
          -0.06411699950695038 0.3468469977378845 0.014341999776661396 -0.06432999670505524 0.35022398829460144 0.00851999968290329
          -0.050308000296354294 0.3468270003795624 -0.018773000687360764 -0.06411699950695038 0.3468469977378845 -0.014173000119626522
          -0.05829999968409538 0.3497590124607086 -0.01890699937939644 -0.06432999670505524 0.35022398829460144 -0.008351000025868416
          -0.038440000265836716 0.35061898827552795 0.00011000000085914508 -0.039712000638246536 0.35023200511932373 0.008975000120699406
          -0.04528599977493286 0.34672001004219055 0.015223000198602676 -0.039712000638246536 0.35023200511932373 -0.008806000463664532
          -0.04528599977493286 0.34672001004219055 -0.015053000301122665 -0.04946000128984451 0.34999001026153564 0.017240000888705254
          -0.06219099834561348 0.3541939854621887 0.0057760002091526985 -0.061820000410079956 0.3540689945220947 0.00008900000102585182
          -0.06219099834561348 0.3541939854621887 -0.005607000086456537 -0.05741100013256073 0.35246700048446655 0.018059000372886658
          -0.061625998467206955 0.35285499691963196 0.017079999670386314 -0.06343299895524979 0.35516101121902466 0.0087890001013875
          -0.04946000128984451 0.34999001026153564 -0.01707099936902523 -0.061625998467206955 0.35285499691963196 -0.01691100001335144
          -0.05741100013256073 0.35246700048446655 -0.017890000715851784 -0.06343299895524979 0.35516101121902466 -0.008620000444352627
          -0.0371909998357296 0.3533029854297638 0.00011100000119768083 -0.03773200139403343 0.3531999886035919 0.00991899985820055
          -0.0438929982483387 0.3523760139942169 0.015804000198841095 -0.03773200139403343 0.3531999886035919 -0.009750000201165676
          -0.0438929982483387 0.3523760139942169 -0.01563500054180622 -0.04746999964118004 0.35395100712776184 0.017318999394774437
          -0.05879899859428406 0.3601030111312866 0.00596500001847744 -0.060155000537633896 0.3610129952430725 0.009185999631881714
          -0.05824200063943863 0.35995998978614807 0.00009100000170292333 -0.05879899859428406 0.3601030111312866 -0.005795999895781279
          -0.060155000537633896 0.3610129952430725 -0.00901699997484684 -0.05481100082397461 0.35728299617767334 0.018187999725341797
          -0.05808800086379051 0.35943499207496643 0.018540000542998314 -0.06551700085401535 0.3540259897708893 0.015395999886095524
          -0.06349900364875793 0.35556501150131226 0.018856000155210495 -0.060853999108076096 0.35948100686073303 0.022531000897288322
          -0.06826899945735931 0.35859501361846924 0.003425000002607703 -0.04746999964118004 0.35395100712776184 -0.017149999737739563
          -0.05808800086379051 0.35943499207496643 -0.01837100088596344 -0.05481100082397461 0.35728299617767334 -0.018019000068306923
          -0.06349900364875793 0.35556501150131226 -0.01868700049817562 -0.06551700085401535 0.3540259897708893 -0.01522700022906065
          -0.060853999108076096 0.35948100686073303 -0.0223619993776083 -0.06826899945735931 0.35859501361846924 -0.0032560001127421856
          -0.03633600100874901 0.3565250039100647 0.00011200000153621659 -0.037000998854637146 0.3566040098667145 0.010099000297486782
          -0.04164300113916397 0.3544920086860657 0.0167239997535944 -0.037000998854637146 0.3566040098667145 -0.009929999709129333
          -0.04164300113916397 0.3544920086860657 -0.016555000096559525 -0.046261001378297806 0.3559739887714386 0.019139999523758888
          -0.05761000141501427 0.36545300483703613 0.007581999991089106 -0.05854099988937378 0.36444899439811707 0.009856999851763248
          -0.05659399926662445 0.3642910122871399 0.00009300000237999484 -0.05761000141501427 0.36545300483703613 -0.007412999868392944
          -0.05854099988937378 0.36444899439811707 -0.009688000194728374 -0.052257999777793884 0.3596870005130768 0.020059000700712204
          -0.05581900104880333 0.361066997051239 0.01791900023818016 -0.06016800180077553 0.36386701464653015 0.01796099916100502
          -0.06983499974012375 0.36214399337768555 0.02080499939620495 -0.06940899789333344 0.3586130142211914 0.015483000315725803
          -0.06883999705314636 0.35340699553489685 0.022247999906539917 -0.06755399703979492 0.35269999504089355 0.009522000327706337
          -0.06615400314331055 0.3598180115222931 0.021400999277830124 -0.0689070001244545 0.3552660048007965 0.01946300081908703
          -0.07013700157403946 0.3548409938812256 0.00008800000068731606 -0.07518400251865387 0.34714001417160034 0.004666999913752079
          -0.0743279978632927 0.36190399527549744 0.00008900000102585182 -0.06863699853420258 0.36351698637008667 0.007000000216066837
          -0.046261001378297806 0.3559739887714386 -0.018970999866724014 -0.05581900104880333 0.361066997051239 -0.017750000581145287
          -0.052257999777793884 0.3596870005130768 -0.01988999918103218 -0.06016800180077553 0.36386701464653015 -0.017791999503970146
          -0.06940899789333344 0.3586130142211914 -0.015313999727368355 -0.06983499974012375 0.36214399337768555 -0.020635999739170074
          -0.06883999705314636 0.35340699553489685 -0.022079000249505043 -0.06755399703979492 0.35269999504089355 -0.009352999739348888
          -0.0689070001244545 0.3552660048007965 -0.019293999299407005 -0.06615400314331055 0.3598180115222931 -0.02123199962079525
          -0.07518400251865387 0.34714001417160034 -0.004497999791055918 -0.06863699853420258 0.36351698637008667 -0.006831000093370676
          -0.04749099910259247 0.3613100051879883 0.00009300000237999484 -0.04072599858045578 0.35798901319503784 0.016953999176621437
          -0.045788999646902084 0.3602469861507416 0.020059999078512192 -0.04072599858045578 0.35798901319503784 -0.016784999519586563
          -0.045788999646902084 0.3602469861507416 -0.019890999421477318 -0.05248500034213066 0.3626829981803894 0.020183000713586807
          -0.06585100293159485 0.3697200119495392 0.014419999904930592 -0.05955899879336357 0.3650769889354706 0.012721999548375607
          -0.06624499708414078 0.3677330017089844 0.009101999923586845 -0.0563259981572628 0.36452698707580566 0.015422999858856201
          -0.05955899879336357 0.3650769889354706 -0.012552999891340733 -0.06585100293159485 0.3697200119495392 -0.01425199955701828
          -0.06624499708414078 0.3677330017089844 -0.008932000026106834 -0.0563259981572628 0.36452698707580566 -0.015254000201821327
          -0.06669499725103378 0.3643620014190674 0.01911100000143051 -0.0653190016746521 0.3663020133972168 0.016566000878810883
          -0.0806329995393753 0.3779830038547516 0.04137500002980232 -0.07339499890804291 0.36469200253486633 0.01898300088942051
          -0.06851299852132797 0.36629098653793335 0.01914599910378456 -0.07991199940443039 0.35381099581718445 0.0114120002835989
          -0.07662100344896317 0.35425901412963867 0.013950999826192856 -0.07814399898052216 0.36737701296806335 0.02277900092303753
          -0.07268500328063965 0.3623200058937073 0.01144499983638525 -0.06837599724531174 0.35138198733329773 0.010835000313818455
          -0.08063799887895584 0.3509019911289215 0.015358000062406063 -0.06891699880361557 0.3611289858818054 0.023661000654101372
          -0.07056300342082977 0.36002200841903687 0.021585000678896904 -0.06984400004148483 0.36533400416374207 0.02188899926841259
          -0.07608100026845932 0.351516991853714 0.0000870000003487803 -0.07519499957561493 0.34633898735046387 0.006089999806135893
          -0.08477599918842316 0.3553600013256073 0.00008800000068731606 -0.0758569985628128 0.35968801379203796 0.004526999779045582
          -0.0732249990105629 0.3578540086746216 0.007521999999880791 -0.07229600101709366 0.3609049916267395 0.00940600037574768
          -0.0758569985628128 0.35968801379203796 -0.004358000122010708 -0.0732249990105629 0.3578540086746216 -0.0073529998771846294
          -0.07229600101709366 0.3609049916267395 -0.009236999787390232 -0.06932699680328369 0.36418798565864563 0.010255999863147736
          -0.05248500034213066 0.3626829981803894 -0.020013999193906784 -0.06669499725103378 0.3643620014190674 -0.018942000344395638
          -0.0653190016746521 0.3663020133972168 -0.01639699935913086 -0.07662100344896317 0.35425901412963867 -0.013782000169157982
          -0.07991199940443039 0.35381099581718445 -0.011242999695241451 -0.07339499890804291 0.36469200253486633 -0.018813999369740486
          -0.07814399898052216 0.36737701296806335 -0.022609999403357506 -0.07268500328063965 0.3623200058937073 -0.011276000179350376
          -0.0806329995393753 0.3779830038547516 -0.04106000065803528 -0.06851299852132797 0.36629098653793335 -0.018976999446749687
          -0.06837599724531174 0.35138198733329773 -0.010665999725461006 -0.08063799887895584 0.3509019911289215 -0.015189000405371189
          -0.07056300342082977 0.36002200841903687 -0.02141599915921688 -0.06891699880361557 0.3611289858818054 -0.02349199913442135
          -0.06984400004148483 0.36533400416374207 -0.021719999611377716 -0.07519499957561493 0.34633898735046387 -0.005921000149101019
          -0.06932699680328369 0.36418798565864563 -0.010087000206112862 -0.08539299666881561 0.3773210048675537 0.03470500186085701
          -0.07183799892663956 0.36656901240348816 0.012559999711811543 -0.08539299666881561 0.3773210048675537 -0.03438999876379967
          -0.07183799892663956 0.36656901240348816 -0.012391000054776669 -0.08436399698257446 0.3757709860801697 0.045827001333236694
          -0.08615700155496597 0.3746579885482788 0.035645000636577606 -0.08227100223302841 0.35249701142311096 0.009279999881982803
          -0.0833510011434555 0.34937700629234314 0.008785000070929527 -0.08197399973869324 0.34624600410461426 0.01513999979943037
          -0.07937300205230713 0.355228990316391 0.008015000261366367 -0.07652600109577179 0.34508100152015686 0.012019000016152859
          -0.07630299776792526 0.34921300411224365 0.004860000219196081 -0.07882600277662277 0.348021000623703 0.00008600000001024455
          -0.07630299776792526 0.34921300411224365 -0.00469100009649992 -0.08310899883508682 0.3566809892654419 0.003836000105366111
          -0.0924530029296875 0.34863701462745667 0.00007000000186963007 -0.08381299674510956 0.35344499349594116 0.003734000027179718
          -0.08310899883508682 0.3566809892654419 -0.0036669999826699495 -0.08381299674510956 0.35344499349594116 -0.0035649999044835567
          -0.07937300205230713 0.355228990316391 -0.007845999673008919 -0.0833510011434555 0.34937700629234314 -0.008616000413894653
          -0.08227100223302841 0.35249701142311096 -0.00911100022494793 -0.08197399973869324 0.34624600410461426 -0.014972000382840633
          -0.08436399698257446 0.3757709860801697 -0.04551199823617935 -0.08615700155496597 0.3746579885482788 -0.03533000126481056
          -0.07652600109577179 0.34508100152015686 -0.011850000359117985 -0.0848499983549118 0.35048601031303406 0.0038920000661164522
          -0.08458399772644043 0.3487299978733063 0.004548000171780586 -0.08111300319433212 0.3463740050792694 0.006928999908268452
          -0.08549900352954865 0.3452349901199341 0.00008399999933317304 -0.08111300319433212 0.3463740050792694 -0.00675999978557229
          -0.08458399772644043 0.3487299978733063 -0.004379000049084425 -0.09853500127792358 0.3428089916706085 0.00010800000018207356
          -0.0848499983549118 0.35048601031303406 -0.003722999943420291 -0.09417399764060974 0.3405809998512268 0.003010000102221966
          -0.08813100308179855 0.3442780077457428 0.0042420001700520515 -0.09626899659633636 0.3352459967136383 0.0023739999160170555
          -0.09680700302124023 0.33519598841667175 0.00012399999832268804 -0.09626899659633636 0.3352459967136383 -0.0021200000774115324
          -0.08813100308179855 0.3442780077457428 -0.00407300004735589 -0.10091999918222427 0.340844988822937 0.00304200011305511
          -0.1017720028758049 0.3400860130786896 0.00011300000187475234 -0.09417399764060974 0.3405809998512268 -0.002756000030785799
          -0.10091999918222427 0.340844988822937 -0.002788000041618943 -0.1004289984703064 0.3378799855709076 0.0035210000351071358
          -0.09934400022029877 0.33620700240135193 0.00010800000018207356 -0.1004289984703064 0.3378799855709076 -0.003266999963670969
          <InformationKey name="L2_NORM_RANGE" location="vtkDataArray" length="2">
            <Value index="0">
              0.34156986713
            </Value>
            <Value index="1">
              0.3886961827
            </Value>
          </InformationKey>
        </DataArray>
      </Points>
      <Verts>
        <DataArray type="Int64" Name="connectivity" format="ascii" RangeMin="1e+299" RangeMax="-1e+299">
        </DataArray>
        <DataArray type="Int64" Name="offsets" format="ascii" RangeMin="1e+299" RangeMax="-1e+299">
        </DataArray>
      </Verts>
      <Lines>
        <DataArray type="Int64" Name="connectivity" format="ascii" RangeMin="1e+299" RangeMax="-1e+299">
        </DataArray>
        <DataArray type="Int64" Name="offsets" format="ascii" RangeMin="1e+299" RangeMax="-1e+299">
        </DataArray>
      </Lines>
      <Strips>
        <DataArray type="Int64" Name="connectivity" format="ascii" RangeMin="1e+299" RangeMax="-1e+299">
        </DataArray>
        <DataArray type="Int64" Name="offsets" format="ascii" RangeMin="1e+299" RangeMax="-1e+299">