<?xml version="1.0"?>
<VTKFile type="PolyData" version="0.1" byte_order="LittleEndian" header_type="UInt32" compressor="vtkZLibDataCompressor">
  <PolyData>
    <Piece NumberOfPoints="212" NumberOfVerts="0" NumberOfLines="0" NumberOfStrips="0" NumberOfPolys="424">
      <PointData Normals="Normals">
        <DataArray type="Float32" Name="Normals" NumberOfComponents="3" format="ascii" RangeMin="0.9999993340983292" RangeMax="1.0000006433443729">
          0.5891630053520203 -0.8080139756202698 0.0003279999946244061 0.3783639967441559 -0.9071750044822693 0.1840510070323944
          -0.13378700613975525 -0.9910100102424622 0.000014999999621068127 0.9450889825820923 -0.17689800262451172 0.2747969925403595
          0.951108992099762 -0.30885499715805054 0.00021399999968707561 0.3784630000591278 -0.9071800112724304 -0.1838189959526062
          0.9451810121536255 -0.17683300375938416 -0.27452200651168823 0.4066939949989319 -0.7788029909133911 0.4775629937648773
          0.14810499548912048 -0.6583060026168823 0.7380369901657104 -0.47959500551223755 -0.8773499727249146 -0.01569800078868866
          -0.5859889984130859 -0.8103190064430237 -0.000014000000192027073 -0.5198490023612976 -0.8381530046463013 0.1650950014591217
          -0.2647390067577362 -0.6470209956169128 0.7150369882583618 0.40668898820877075 -0.7788069844245911 -0.47756001353263855
          0.1481029987335205 -0.6583099961280823 -0.7380329966545105 -0.4795919954776764 -0.8773519992828369 0.015672000125050545
          -0.5198429822921753 -0.8381569981575012 -0.16509300470352173 -0.2647339999675751 -0.6470270156860352 -0.7150329947471619
          0.9941449761390686 0.10805600136518478 0.0001610000035725534 0.9353799819946289 0.14569200575351715 0.3222379982471466
          0.6919549703598022 0.07459399849176407 0.7180759906768799 0.9354770183563232 0.14572100341320038 -0.3219450116157532
          0.6919559836387634 0.07459799945354462 -0.7180749773979187 0.26583099365234375 0.12740300595760345 0.955564022064209
          -0.9232810139656067 -0.3825330138206482 -0.03494200110435486 -0.9949120283126831 -0.10074400156736374 -0.000018999999156221747
          -0.9232810139656067 -0.382533997297287 0.03493800014257431 -0.2635110020637512 -0.011733000166714191 0.96458500623703
          -0.7858480215072632 -0.3342060148715973 0.5203359723091125 -0.9538130164146423 -0.22949199378490448 -0.19384099543094635
          0.26583099365234375 0.12740300595760345 -0.955564022064209 -0.7858480215072632 -0.3342060148715973 -0.5203359723091125
          -0.2635110020637512 -0.011733000166714191 -0.96458500623703 -0.9538130164146423 -0.22949199378490448 0.19384099543094635
          0.9811949729919434 -0.19301700592041016 0.0003459999861661345 0.8927689790725708 -0.26668399572372437 0.3631030023097992
          0.6570090055465698 0.13734300434589386 0.7412670254707336 0.8928729891777039 -0.2666949927806854 -0.3628369867801666
          0.657010018825531 0.13734200596809387 -0.7412660121917725 0.2503040134906769 0.13373799622058868 0.9588860273361206
          -0.9763829708099365 0.1476760059595108 -0.15769900381565094 -0.995398998260498 0.09581399708986282 -0.00007599999662488699
          -0.9763889908790588 0.14767000079154968 0.15766599774360657 -0.14813700318336487 0.0436209999024868 0.9880040287971497
          -0.18275099992752075 -0.4749999940395355 0.86080002784729 -0.8128489851951599 -0.381523996591568 -0.4401310086250305
          0.2503040134906769 0.13373799622058868 -0.9588860273361206 -0.18275099992752075 -0.4749999940395355 -0.86080002784729
          -0.14813700318336487 0.0436209999024868 -0.9880040287971497 -0.8128489851951599 -0.381523996591568 0.4401310086250305
          0.9624390006065369 -0.27149900794029236 0.00020199999562464654 0.8959490060806274 -0.3145509958267212 0.3135800063610077
          0.5227839946746826 -0.3405590057373047 0.7814840078353882 0.896003007888794 -0.3145500123500824 -0.31342899799346924
          0.5227839946746826 -0.3405590057373047 -0.7814840078353882 0.15214799344539642 -0.33319899439811707 0.9304999709129333
          -0.9678429961204529 0.24668599665164948 0.04925300180912018 -0.7012699842453003 0.16727599501609802 -0.6929929852485657
          -0.882319986820221 0.47064998745918274 -0.000155999994603917 -0.9678440093994141 0.24666500091552734 -0.04934699833393097
          -0.7012699842453003 0.1672700047492981 0.6929939985275269 -0.06731600314378738 -0.2946400046348572 0.9532340168952942
          0.1433670073747635 -0.03184700012207031 0.9891570210456848 -0.24670900404453278 -0.9489960074424744 0.1963219940662384
          -0.2854500114917755 -0.5850570201873779 0.7590960264205933 0.0132020004093647 -0.057826001197099686 0.9982389807701111
          0.6844210028648376 -0.032628998160362244 -0.7283570170402527 0.15214799344539642 -0.33319899439811707 -0.9304999709129333
          0.1433670073747635 -0.03184700012207031 -0.9891570210456848 -0.06731600314378738 -0.2946400046348572 -0.9532340168952942
          -0.2854500114917755 -0.5850570201873779 -0.7590960264205933 -0.24671100080013275 -0.9489949941635132 -0.19631999731063843
          0.0132020004093647 -0.057826001197099686 -0.9982389807701111 0.684594988822937 -0.032597001641988754 0.7281950116157532
          0.9400669932365417 0.34098899364471436 0.00016900000628083944 0.8341330289840698 0.4504860043525696 0.31825199723243713
          0.5551859736442566 -0.3381589949131012 0.759880006313324 0.8341720104217529 0.45050400495529175 -0.318123996257782
          0.555188000202179 -0.33815398812294006 -0.759880006313324 0.10429900139570236 -0.3639940023422241 0.9255430102348328
          -0.20555000007152557 0.9452679753303528 -0.25341200828552246 -0.4361569881439209 0.22658100724220276 -0.8708770275115967
          -0.300790011882782 0.9536899924278259 -0.00019200000679120421 -0.2055799961090088 0.945294976234436 0.25328800082206726
          -0.4361560046672821 0.22657500207424164 0.8708800077438354 -0.143435999751091 -0.19276100397109985 0.9707059860229492
          -0.15923400223255157 0.39430001378059387 0.9050809741020203 0.07365500181913376 0.7460529804229736 0.6618009805679321
          -0.28883400559425354 -0.5108540058135986 0.8096929788589478 -0.4281559884548187 -0.49889400601387024 0.7535169720649719
          0.43641600012779236 -0.21395400166511536 0.8739370107650757 0.7604089975357056 -0.46497300267219543 0.4534069895744324
          0.14621199667453766 0.26768699288368225 0.9523469805717468 -0.6326090097427368 -0.49202099442481995 0.5980979800224304
          0.9716280102729797 -0.23651500046253204 -0.0002119999990100041 0.630728006362915 -0.6280390024185181 -0.4557949900627136
          -0.34559598565101624 0.9383829832077026 0.000048999998398358 -0.3412429988384247 0.5771219730377197 -0.7419459819793701
          0.10429900139570236 -0.3639940023422241 -0.9255430102348328 -0.15923400223255157 0.39430001378059387 -0.9050809741020203
          -0.143435999751091 -0.19276100397109985 -0.9707059860229492 0.07365500181913376 0.7460529804229736 -0.6618009805679321
          -0.42815399169921875 -0.498896986246109 -0.7535160183906555 -0.2888360023498535 -0.5108559727668762 -0.8096910119056702
          0.43641600012779236 -0.21395400166511536 -0.8739370107650757 0.7604100108146667 -0.46496498584747314 -0.4534139931201935
          -0.6326090097427368 -0.49202099442481995 -0.5980979800224304 0.14621199667453766 0.26768699288368225 -0.9523469805717468
          0.630711019039154 -0.6280919909477234 0.45574501156806946 -0.34115299582481384 0.5771390199661255 0.7419739961624146
          0.2137330025434494 0.9768919944763184 -0.000003999999989900971 0.6184409856796265 0.5998389720916748 0.5076659917831421
          0.3696820139884949 0.4368849992752075 0.8200410008430481 0.6184350252151489 0.599852979183197 -0.5076559782028198
          0.3696869909763336 0.4368939995765686 -0.8200340270996094 -0.034056998789310455 0.5811169743537903 0.8131070137023926
          0.017274999991059303 0.9940459728240967 -0.10757999867200851 0.1784069985151291 0.9184560179710388 0.3530009984970093
          -0.5166469812393188 0.6741300225257874 -0.5278499722480774 0.007379000075161457 0.9607549905776978 0.27730199694633484
          0.1784069985151291 0.9184560179710388 -0.3530009984970093 0.01727600023150444 0.9940469861030579 0.10757800191640854
          -0.51664799451828 0.6741269826889038 0.5278519988059998 0.007393000181764364 0.9607560038566589 -0.2772969901561737
          0.4418410062789917 0.5263490080833435 0.7264530062675476 0.4839380085468292 0.5477610230445862 0.6824679970741272
          0.5538740158081055 0.2324959933757782 0.7994800209999084 0.13604199886322021 -0.7151190042495728 0.6856369972229004
          0.5858110189437866 0.1191909983754158 0.8016350269317627 -0.7633839845657349 0.41674500703811646 0.49352601170539856
          -0.08846300095319748 0.15352199971675873 0.9841780066490173 -0.8497790098190308 -0.4467270076274872 -0.27984198927879333
          -0.8568639755249023 0.42245998978614807 -0.2954849898815155 0.8560889959335327 -0.4118120074272156 0.31228798627853394
          -0.025800999253988266 0.24630999565124512 0.9688469767570496 0.11399099975824356 -0.023802999407052994 0.9931970238685608
          -0.9172369837760925 -0.2862519919872284 0.2770119905471802 -0.9248200058937073 0.3240799903869629 -0.19919900596141815
          -0.15163899958133698 -0.9884359836578369 -0.00011899999663000926 -0.24478599429130554 -0.8883730173110962 -0.38842499256134033
          -0.7677540183067322 0.6407449841499329 0.00019200000679120421 -0.4125469923019409 0.8434720039367676 0.3440360128879547
          -0.6636850237846375 0.7298250198364258 0.1639450043439865 -0.8378660082817078 0.5034189820289612 -0.21107099950313568
          -0.41238299012184143 0.8436229825019836 -0.34386101365089417 -0.6635670065879822 0.7299690246582031 -0.16378100216388702
          -0.8378559947013855 0.5034080147743225 0.21113499999046326 -0.7414510250091553 0.43374601006507874 -0.5119720101356506
          -0.03405199944972992 0.581121027469635 -0.813103973865509 0.4418410062789917 0.5263490080833435 -0.7264530062675476
          0.4839380085468292 0.5477610230445862 -0.6824679970741272 -0.08845899999141693 0.15352800488471985 -0.9841769933700562
          -0.763384997844696 0.4167430102825165 -0.49352800846099854 0.13604199886322021 -0.7151209712028503 -0.6856340169906616
          -0.8497769832611084 -0.44672998785972595 0.27984100580215454 -0.8568699955940247 0.4224559962749481 0.29547399282455444
          0.5538740158081055 0.2324959933757782 -0.7994800209999084 0.5858110189437866 0.1191909983754158 -0.8016350269317627
          0.8560889959335327 -0.4118120074272156 -0.31228798627853394 -0.02580299973487854 0.24631400406360626 -0.9688469767570496
          -0.9172369837760925 -0.2862519919872284 -0.2770119905471802 0.11399099975824356 -0.023802999407052994 -0.9931970238685608
          -0.9248200058937073 0.3240799903869629 0.19919900596141815 -0.24467100203037262 -0.8884180188179016 0.38839399814605713
          -0.7414519786834717 0.4337480068206787 0.5119680166244507 -0.7722070217132568 0.5455780029296875 -0.3256379961967468
          -0.6422150135040283 0.2222139984369278 -0.7336080074310303 -0.7722070217132568 0.5455780029296875 0.3256379961967468
          -0.6422150135040283 0.2222139984369278 0.7336080074310303 -0.5926629900932312 -0.22447499632835388 0.7735390067100525
          -0.7209349870681763 -0.6375380158424377 0.2716589868068695 -0.8424710035324097 0.34301498532295227 0.4154309928417206
          -0.8933159708976746 -0.2328220009803772 0.3844220042228699 -0.7890549898147583 -0.4639340043067932 0.40268799662590027
          -0.7323330044746399 0.6353409886360168 0.24501200020313263 0.25538700819015503 -0.9323210120201111 0.25603601336479187
          0.06067200005054474 -0.9444910287857056 -0.32288700342178345 0.6772720217704773 -0.7357329726219177 -0.00007899999764049426
          0.06063200160861015 -0.9445359706878662 0.32276201248168945 -0.6720370054244995 0.5474650263786316 0.49864599108695984
          -0.7742050290107727 0.6329349875450134 -0.0006810000049881637 -0.7833510041236877 0.28022900223731995 0.5548269748687744
          -0.6720899939537048 0.5474669933319092 -0.4985730051994324 -0.7830650210380554 0.28053900599479675 -0.5550749897956848
          -0.7323340177536011 0.6353390216827393 -0.24501299858093262 -0.8933150172233582 -0.23282599449157715 -0.38442298769950867
          -0.8424710035324097 0.34301599860191345 -0.4154309928417206 -0.7890539765357971 -0.46393799781799316 -0.4026849865913391
          -0.5926629900932312 -0.22447499632835388 -0.7735390067100525 -0.7209349870681763 -0.6375380158424377 -0.2716589868068695
          0.2553820013999939 -0.9323229789733887 -0.25603699684143066 -0.6777129769325256 0.20868000388145447 0.7050939798355103
          -0.14041699469089508 -0.934719979763031 0.32646799087524414 -0.2332340031862259 -0.9361730217933655 -0.26302599906921387
          0.5778999924659729 -0.8161069750785828 0.00002700000004551839 -0.23323699831962585 -0.9361730217933655 0.2630220055580139
          -0.14043499529361725 -0.9347019791603088 -0.3265109956264496 -0.5886880159378052 0.8083580136299133 -0.0016039999900385737
          -0.676846981048584 0.20809300243854523 -0.7060989737510681 -0.1507280021905899 0.20137999951839447 0.9678469896316528
          -0.1924159973859787 0.02015800029039383 0.9811059832572937 0.4265660047531128 -0.764644980430603 0.48307299613952637
          -0.03190699964761734 -0.9994900226593018 -0.0008699999889358878 0.4265649914741516 -0.7646210193634033 -0.48311200737953186
          -0.19243000447750092 0.020168999210000038 -0.9811040163040161 -0.7857120037078857 0.2021300047636032 0.5846369862556458
          -0.9989920258522034 0.04486199840903282 -0.0011340000201016665 -0.14983400702476501 0.19982899725437164 -0.9683070182800293
          -0.7847599983215332 0.20124199986457825 -0.5862200260162354 -0.45778098702430725 -0.6217859983444214 0.6354680061340332
          -0.7148380279541016 -0.6992890238761902 -0.0009139999747276306 -0.45679399371147156 -0.6218109726905823 -0.636152982711792
          <InformationKey name="L2_NORM_RANGE" location="vtkDataArray" length="2">
            <Value index="0">
              0.9999993341
            </Value>
            <Value index="1">
              1.0000006433
            </Value>
          </InformationKey>
        </DataArray>
      </PointData>
      <CellData>
      </CellData>
      <Points>
        <DataArray type="Float32" Name="Points" NumberOfComponents="3" format="ascii" RangeMin="0.3359944464202094" RangeMax="0.37717102133887886">
          -0.03967300057411194 0.33364400267601013 0.00002300000051036477 -0.04028899967670441 0.3340330123901367 0.0076430002227425575
          -0.052014999091625214 0.3358420133590698 0.000003000000106112566 -0.038642000406980515 0.33741000294685364 0.00916799996048212
          -0.038736000657081604 0.3348950147628784 0.00002499999936844688 -0.04028899967670441 0.3340330123901367 -0.0076430002227425575
          -0.038642000406980515 0.33741000294685364 -0.00916799996048212 -0.04394400119781494 0.3351989984512329 0.015572000294923782
          -0.04988899827003479 0.33647701144218445 0.019429000094532967 -0.06314700096845627 0.3370699882507324 0.004596000071614981
          -0.06323199719190598 0.33734598755836487 0.000003000000106112566 -0.06344600021839142 0.33735400438308716 0.013527999632060528
          -0.059386998414993286 0.3378629982471466 0.019533000886440277 -0.04394400119781494 0.3351989984512329 -0.015572000294923782
          -0.04988899827003479 0.33647701144218445 -0.019429000094532967 -0.06314700096845627 0.3370699882507324 -0.004596000071614981
          -0.06344600021839142 0.33735400438308716 -0.013527999632060528 -0.059386998414993286 0.3378629982471466 -0.019533000886440277
          -0.03878200054168701 0.3391219973564148 0.00002499999936844688 -0.039907000958919525 0.3397670090198517 0.009816000238060951
          -0.043196000158786774 0.3390350043773651 0.01654299907386303 -0.039907000958919525 0.3397670090198517 -0.009816000238060951
          -0.043196000158786774 0.3390350043773651 -0.01654299907386303 -0.05026699975132942 0.34105899930000305 0.020093999803066254
          -0.06616900116205215 0.34075498580932617 0.004730000160634518 -0.06615299731492996 0.3406350016593933 0.000003000000106112566
          -0.06616900116205215 0.34075498580932617 -0.004730000160634518 -0.059891000390052795 0.34284600615501404 0.020237000659108162
          -0.06600300222635269 0.33838900923728943 0.015192000195384026 -0.06684199720621109 0.34220099449157715 0.008988999761641026
          -0.05026699975132942 0.34105899930000305 -0.020093999803066254 -0.06600300222635269 0.33838900923728943 -0.015192000195384026
          -0.059891000390052795 0.34284600615501404 -0.020237000659108162 -0.06684199720621109 0.34220099449157715 -0.008988999761641026
          -0.03741699829697609 0.34769898653030396 0.000028000000384054147 -0.03879899904131889 0.34700900316238403 0.009472999721765518
          -0.044527001678943634 0.3419150114059448 0.016131000593304634 -0.03879899904131889 0.34700900316238403 -0.009472999721765518
          -0.044527001678943634 0.3419150114059448 -0.016131000593304634 -0.04986099898815155 0.34483298659324646 0.018279999494552612
          -0.06510800123214722 0.34714800119400024 0.0060640000738203526 -0.06466300040483475 0.34707701206207275 0.000004999999873689376
          -0.06510800123214722 0.34714800119400024 -0.0060640000738203526 -0.05935699865221977 0.346109002828598 0.01915300078690052
          -0.06422699987888336 0.3457300066947937 0.0181099995970726 -0.0666939988732338 0.34800899028778076 0.009274999611079693
          -0.04986099898815155 0.34483298659324646 -0.018279999494552612 -0.06422699987888336 0.3457300066947937 -0.0181099995970726
          -0.05935699865221977 0.346109002828598 -0.01915300078690052 -0.0666939988732338 0.34800899028778076 -0.009274999611079693
          -0.03646999970078468 0.3510049879550934 0.000029000000722589903 -0.037066999822854996 0.35078200697898865 0.010479000397026539
          -0.04394000023603439 0.3486410081386566 0.01675100065767765 -0.037066999822854996 0.35078200697898865 -0.010479000397026539
          -0.04394000023603439 0.3486410081386566 -0.01675100065767765 -0.04829400032758713 0.34973999857902527 0.01836399920284748
          -0.06494700163602829 0.35620999336242676 0.006266999989748001 -0.06406500190496445 0.3552060127258301 0.009697999805212021
          -0.06428699940443039 0.35615500807762146 0.000007000000096013537 -0.06494700163602829 0.35620999336242676 -0.006266999989748001
          -0.06406500190496445 0.3552060127258301 -0.009697999805212021 -0.057245999574661255 0.35211101174354553 0.019291000440716743
          -0.06136099994182587 0.35392698645591736 0.019665999338030815 -0.06970000267028809 0.3465830087661743 0.016315000131726265
          -0.0668409988284111 0.348457008600235 0.020003000274300575 -0.06717900186777115 0.35509899258613586 0.023917999118566513
          -0.07391700148582458 0.3512040078639984 0.0035600000992417336 -0.04829400032758713 0.34973999857902527 -0.01836399920284748
          -0.06136099994182587 0.35392698645591736 -0.019665999338030815 -0.057245999574661255 0.35211101174354553 -0.019291000440716743
          -0.0668409988284111 0.348457008600235 -0.020003000274300575 -0.06970000267028809 0.3465830087661743 -0.016315000131726265
          -0.06717900186777115 0.35509899258613586 -0.023917999118566513 -0.07391700148582458 0.3512040078639984 -0.0035600000992417336
          -0.0360650010406971 0.3548470139503479 0.000029000000722589903 -0.03683700039982796 0.3548089861869812 0.010672000236809254
          -0.04175199940800667 0.3514940142631531 0.01773099973797798 -0.03683700039982796 0.3548089861869812 -0.010672000236809254
          -0.04175199940800667 0.3514940142631531 -0.01773099973797798 -0.04727400094270706 0.3522840142250061 0.020305000245571136
          -0.06195199862122536 0.36076799035072327 0.007988999597728252 -0.0628340020775795 0.35944101214408875 0.010413000360131264
          -0.06058799847960472 0.3596409857273102 0.000009000000318337698 -0.06195199862122536 0.36076799035072327 -0.007988999597728252
          -0.0628340020775795 0.35944101214408875 -0.010413000360131264 -0.054763998836278915 0.3553510010242462 0.02128399908542633
          -0.061723001301288605 0.3578900098800659 0.01900400035083294 -0.06458500027656555 0.3584589958190918 0.01904899999499321
          -0.07632800191640854 0.3549480140209198 0.022079000249505043 -0.07521799951791763 0.3510020077228546 0.016409000381827354
          -0.07337699830532074 0.34522899985313416 0.02361699938774109 -0.07178600132465363 0.3446730077266693 0.01005600020289421
          -0.07172299921512604 0.35301101207733154 0.022714000195264816 -0.07405500113964081 0.34727999567985535 0.020648999139666557
          -0.07510700076818466 0.34661200642585754 0.000003000000106112566 -0.07949499785900116 0.33684098720550537 0.004883000161498785
          -0.08140499889850616 0.35379698872566223 0.000004999999873689376 -0.07520700246095657 0.3567480146884918 0.007368999999016523
          -0.04727400094270706 0.3522840142250061 -0.020305000245571136 -0.061723001301288605 0.3578900098800659 -0.01900400035083294
          -0.054763998836278915 0.3553510010242462 -0.02128399908542633 -0.06458500027656555 0.3584589958190918 -0.01904899999499321
          -0.07521799951791763 0.3510020077228546 -0.016409000381827354 -0.07632800191640854 0.3549480140209198 -0.022079000249505043
          -0.07337699830532074 0.34522899985313416 -0.02361699938774109 -0.07178600132465363 0.3446730077266693 -0.01005600020289421
          -0.07405500113964081 0.34727999567985535 -0.020648999139666557 -0.07172299921512604 0.35301101207733154 -0.022714000195264816
          -0.07949499785900116 0.33684098720550537 -0.004883000161498785 -0.07520700246095657 0.3567480146884918 -0.007368999999016523
          -0.04962100088596344 0.3581329882144928 0.000009000000318337698 -0.04132499918341637 0.355663001537323 0.017976000905036926
          -0.04749299958348274 0.35725098848342896 0.021285999566316605 -0.04132499918341637 0.355663001537323 -0.017976000905036926
          -0.04749299958348274 0.35725098848342896 -0.021285999566316605 -0.055553000420331955 0.35872599482536316 0.02141599915921688
          -0.07312999665737152 0.3643679916858673 0.015275999903678894 -0.06410499662160873 0.3599579930305481 0.013465999625623226
          -0.07322800159454346 0.3620240092277527 0.009607999585568905 -0.06032500043511391 0.35996198654174805 0.01634399965405464
          -0.06410499662160873 0.3599579930305481 -0.013465999625623226 -0.07312999665737152 0.3643679916858673 -0.015275999903678894
          -0.07322800159454346 0.3620240092277527 -0.009607999585568905 -0.06032500043511391 0.35996198654174805 -0.01634399965405464
          -0.07314399629831314 0.35809001326560974 0.020274000242352486 -0.0719200000166893 0.3605720102787018 0.017562000080943108
          -0.08483400195837021 0.36600300669670105 0.03321100026369095 -0.0808349996805191 0.3571600019931793 0.0201370008289814
          -0.07555600255727768 0.359935998916626 0.020312000066041946 -0.0864579975605011 0.34411999583244324 0.012070000171661377
          -0.08239199966192245 0.34468400478363037 0.014775999821722507 -0.08649999648332596 0.35777899622917175 0.024181999266147614
          -0.07960700243711472 0.3545930087566376 0.012105000205338001 -0.07248999923467636 0.34300899505615234 0.011455999687314034
          -0.08676999807357788 0.3406600058078766 0.01627499982714653 -0.07510299980640411 0.3539679944515228 0.025123000144958496
          -0.07678200304508209 0.3523840010166168 0.02291099913418293 -0.07690300047397614 0.35858601331710815 0.02323400042951107
          -0.08129099756479263 0.3416599929332733 0.000003000000106112566 -0.07936699688434601 0.33592501282691956 0.006399000063538551
          -0.09227299690246582 0.3449400067329407 0.000003999999989900971 -0.08275499939918518 0.3509710133075714 0.004732999950647354
          -0.07943200320005417 0.34939101338386536 0.007925000041723251 -0.07891300320625305 0.3530539870262146 0.009933000430464745
          -0.08275499939918518 0.3509710133075714 -0.004732999950647354 -0.07943200320005417 0.34939101338386536 -0.007925000041723251
          -0.07891300320625305 0.3530539870262146 -0.009933000430464745 -0.07611099630594254 0.3573789894580841 0.010838000103831291
          -0.055553000420331955 0.35872599482536316 -0.02141599915921688 -0.07314399629831314 0.35809001326560974 -0.020274000242352486
          -0.0719200000166893 0.3605720102787018 -0.017562000080943108 -0.08239199966192245 0.34468400478363037 -0.014775999821722507
          -0.0864579975605011 0.34411999583244324 -0.012070000171661377 -0.0808349996805191 0.3571600019931793 -0.0201370008289814
          -0.08649999648332596 0.35777899622917175 -0.024181999266147614 -0.07960700243711472 0.3545930087566376 -0.012105000205338001
          -0.08483400195837021 0.36600300669670105 -0.03321100026369095 -0.07555600255727768 0.359935998916626 -0.020312000066041946
          -0.07248999923467636 0.34300899505615234 -0.011455999687314034 -0.08676999807357788 0.3406600058078766 -0.01627499982714653
          -0.07678200304508209 0.3523840010166168 -0.02291099913418293 -0.07510299980640411 0.3539679944515228 -0.025123000144958496
          -0.07690300047397614 0.35858601331710815 -0.02323400042951107 -0.07936699688434601 0.33592501282691956 -0.006399000063538551
          -0.07611099630594254 0.3573789894580841 -0.010838000103831291 -0.09014099836349487 0.3643200099468231 0.027837000787258148
          -0.07939299941062927 0.359605997800827 0.013292999938130379 -0.09014099836349487 0.3643200099468231 -0.027837000787258148
          -0.07939299941062927 0.359605997800827 -0.013292999938130379 -0.0886939987540245 0.3627519905567169 0.03679800033569336
          -0.09053999930620193 0.3611319959163666 0.02859400026500225 -0.08891300112009048 0.34216201305389404 0.009797999635338783
          -0.08959200233221054 0.3383910059928894 0.00927099958062172 -0.08746899664402008 0.33508700132369995 0.016042999923229218
          -0.08609399944543839 0.34584298729896545 0.008449999615550041 -0.08065900206565857 0.3342309892177582 0.01271700020879507
          -0.08113700151443481 0.3389889895915985 0.00508899986743927 -0.08419699966907501 0.33772599697113037 9.999999974752427e-7
          -0.08113700151443481 0.3389889895915985 -0.00508899986743927 -0.09060700237751007 0.3467719852924347 0.0039969999343156815
          -0.09983000159263611 0.33577200770378113 -0.000014999999621068127 -0.0908380001783371 0.342943012714386 0.003889000043272972
          -0.09060700237751007 0.3467719852924347 -0.0039969999343156815 -0.0908380001783371 0.342943012714386 -0.003889000043272972
          -0.08609399944543839 0.34584298729896545 -0.008449999615550041 -0.08959200233221054 0.3383910059928894 -0.00927099958062172
          -0.08891300112009048 0.34216201305389404 -0.009797999635338783 -0.08746899664402008 0.33508700132369995 -0.016042999923229218
          -0.0886939987540245 0.3627519905567169 -0.03679800033569336 -0.09053999930620193 0.3611319959163666 -0.02859400026500225
          -0.08065900206565857 0.3342309892177582 -0.01271700020879507 -0.09149499982595444 0.3393639922142029 0.004056999925523996
          -0.09088099747896194 0.3374130129814148 0.004755999892950058 -0.08651100099086761 0.3354009985923767 0.0072929998859763145
          -0.09130500257015228 0.33324599266052246 0 -0.08651100099086761 0.3354009985923767 -0.0072929998859763145
          -0.09088099747896194 0.3374130129814148 -0.004755999892950058 -0.10662899911403656 0.33054500818252563 -0.000018999999156221747
          -0.09149499982595444 0.3393639922142029 -0.004056999925523996 -0.10074900090694427 0.328902006149292 0.002876000013202429
          -0.09413500130176544 0.33164098858833313 0.004430000204592943 -0.10232199728488922 0.321603000164032 0.002242000075057149
          -0.10298799723386765 0.32143500447273254 -0.000003000000106112566 -0.10232199728488922 0.321603000164032 -0.002242000075057149
          -0.09413500130176544 0.33164098858833313 -0.004430000204592943 -0.10925900191068649 0.3278129994869232 0.002908000024035573
          -0.11018700152635574 0.326772004365921 -0.000014000000192027073 -0.10074900090694427 0.328902006149292 -0.002876000013202429
          -0.10925900191068649 0.3278129994869232 -0.002908000024035573 -0.10809600353240967 0.32453298568725586 0.003386999946087599
          -0.10642699897289276 0.32284998893737793 -0.000019999999494757503 -0.10809600353240967 0.32453298568725586 -0.003386999946087599
          <InformationKey name="L2_NORM_RANGE" location="vtkDataArray" length="2">
            <Value index="0">
              0.33599444642
            </Value>
            <Value index="1">
              0.37717102134
            </Value>
          </InformationKey>
        </DataArray>
      </Points>
      <Verts>
        <DataArray type="Int64" Name="connectivity" format="ascii" RangeMin="1e+299" RangeMax="-1e+299">
        </DataArray>
        <DataArray type="Int64" Name="offsets" format="ascii" RangeMin="1e+299" RangeMax="-1e+299">
        </DataArray>
      </Verts>
      <Lines>
        <DataArray type="Int64" Name="connectivity" format="ascii" RangeMin="1e+299" RangeMax="-1e+299">
        </DataArray>
        <DataArray type="Int64" Name="offsets" format="ascii" RangeMin="1e+299" RangeMax="-1e+299">
        </DataArray>
      </Lines>
      <Strips>
        <DataArray type="Int64" Name="connectivity" format="ascii" RangeMin="1e+299" RangeMax="-1e+299">
        </DataArray>
        <DataArray type="Int64" Name="offsets" format="ascii" RangeMin="1e+299" RangeMax="-1e+299">
        </DataArray>