<?xml version="1.0"?>
<VTKFile type="PolyData" version="0.1" byte_order="LittleEndian" header_type="UInt32" compressor="vtkZLibDataCompressor">
  <PolyData>
    <Piece NumberOfPoints="212" NumberOfVerts="0" NumberOfLines="0" NumberOfStrips="0" NumberOfPolys="424">
      <PointData Normals="Normals">
        <DataArray type="Float32" Name="Normals" NumberOfComponents="3" format="ascii" RangeMin="0.9999993022226855" RangeMax="1.000000777792593">
          0.5141739845275879 -0.8576850295066833 0.00032900000223889947 0.29412201046943665 -0.9377189874649048 0.18486599624156952
          -0.2257850021123886 -0.9741770029067993 0.000014999999621068127 0.9259200096130371 -0.25850600004196167 0.2754029929637909
          0.9205510020256042 -0.39062100648880005 0.00021399999968707561 0.29422199726104736 -0.9377340078353882 -0.18463200330734253
          0.9260169863700867 -0.2584500014781952 -0.27512800693511963 0.33381199836730957 -0.8117259740829468 0.4792400002479553
          0.08619800209999084 -0.668179988861084 0.738988995552063 -0.5572100281715393 -0.8302249908447266 -0.01562800072133541
          -0.6563550233840942 -0.7544519901275635 -0.000012999999853491317 -0.5934470295906067 -0.7877960205078125 0.1649159938097
          -0.32368698716163635 -0.6206899881362915 0.7141219973564148 0.33380699157714844 -0.8117259740829468 -0.4792430102825165
          0.08619099855422974 -0.6681860089302063 -0.738985002040863 -0.5572080016136169 -0.8302270174026489 0.015603000298142433
          -0.5934399962425232 -0.78780198097229 -0.1649159938097 -0.3236770033836365 -0.620701014995575 -0.7141169905662537
          0.999750018119812 0.02236800082027912 0.0001610000035725534 0.9445059895515442 0.06481499969959259 0.322035014629364
          0.6956940293312073 0.014789000153541565 0.7181860208511353 0.9446039795875549 0.06483399868011475 -0.32174500823020935
          0.6956920027732849 0.014791999943554401 -0.7181879878044128 0.2764489948749542 0.1041480004787445 0.9553679823875427
          -0.9531159996986389 -0.300570011138916 -0.03504500165581703 -0.9998990297317505 -0.014201999641954899 -0.000018999999156221747
          -0.9531159996986389 -0.300570011138916 0.035041000694036484 -0.26368001103401184 0.01090800017118454 0.9645490050315857
          -0.8122850060462952 -0.264492005109787 0.5198429822921753 -0.9701300263404846 -0.1461469978094101 -0.1936199963092804
          0.2764489948749542 0.1041330024600029 -0.9553700089454651 -0.812283992767334 -0.26448899507522583 -0.5198469758033752
          -0.2636759877204895 0.010894999839365482 -0.9645500183105469 -0.9701300263404846 -0.1461469978094101 0.1936199963092804
          0.9609829783439636 -0.2766070067882538 0.00034699999378062785 0.8660529851913452 -0.3428339958190918 0.36389198899269104
          0.66669100522995 0.0804779976606369 0.7409769892692566 0.8661569952964783 -0.34285300970077515 -0.36362600326538086
          0.6666929721832275 0.08047399669885635 -0.740975022315979 0.26164498925209045 0.11179500073194504 0.9586679935455322
          -0.9094259738922119 0.32143598794937134 -0.2638610005378723 -0.9155780076980591 0.40213900804519653 -0.00007400000322377309
          -0.9094370007514954 0.32143300771713257 0.2638300061225891 -0.1436610072851181 0.05625300109386444 0.9880269765853882
          -0.2196190059185028 -0.5000759959220886 0.8376700282096863 -0.843608021736145 -0.3089140057563782 -0.4392000138759613
          0.26164698600769043 0.11178900301456451 -0.9586679935455322 -0.21962599456310272 -0.5000690221786499 -0.837673008441925
          -0.14366500079631805 0.056258998811244965 -0.9880260229110718 -0.843608021736145 -0.308912992477417 0.4392009973526001
          0.9353669881820679 -0.35367798805236816 0.00020300000323913991 0.8649140000343323 -0.3911519944667816 0.31452101469039917
          0.4894630014896393 -0.3847469985485077 0.782558023929596 0.8649680018424988 -0.3911550045013428 -0.3143700063228607
          0.48946699500083923 -0.38474398851394653 -0.7825559973716736 0.12028399854898453 -0.3451389968395233 0.9308120012283325
          -0.8993970155715942 0.35276299715042114 -0.2581549882888794 -0.3658730089664459 0.2619610130786896 -0.8930360078811646
          -0.9504690170288086 0.31081900000572205 -0.00014800000644754618 -0.8994280099868774 0.3527500033378601 0.2580620050430298
          -0.3658730089664459 0.2619610130786896 0.8930360078811646 -0.094650998711586 -0.2877050042152405 0.9530310034751892
          0.22934800386428833 0.028550999239087105 0.9729260206222534 -0.3800930082798004 -0.9087640047073364 0.17227299511432648
          -0.442984014749527 -0.5037260055541992 0.7416369915008545 0.07808899879455566 -0.07798200100660324 0.9938920140266418
          0.6781560182571411 -0.09153299778699875 -0.7291949987411499 0.12028899788856506 -0.3451229929924011 -0.9308170080184937
          0.22933800518512726 0.028541000559926033 -0.972927987575531 -0.09465300291776657 -0.2877039909362793 -0.9530310034751892
          -0.442984014749527 -0.5037260055541992 -0.7416369915008545 -0.38009101152420044 -0.9087640047073364 -0.17227299511432648
          0.07808899879455566 -0.07798200100660324 -0.9938920140266418 0.6783329844474792 -0.09151499718427658 0.7290340065956116
          0.9662269949913025 0.25769099593162537 0.00016900000628083944 0.870764970779419 0.3752560019493103 0.3177280128002167
          0.5219720005989075 -0.3850649893283844 0.7610980272293091 0.8708069920539856 0.37526801228523254 -0.31759899854660034
          0.5219680070877075 -0.3850649893283844 -0.7611010074615479 0.06977300345897675 -0.3716680109500885 0.9257400035858154
          -0.2722319960594177 0.895484983921051 -0.35213199257850647 -0.29598701000213623 0.07281900197267532 -0.9524120092391968
          -0.48953598737716675 0.871982991695404 -0.00022699999681208283 -0.27226901054382324 0.8955280184745789 0.35199400782585144
          -0.29598701000213623 0.07281900197267532 0.9524120092391968 -0.2028840035200119 -0.10515200346708298 0.9735410213470459
          -0.21710899472236633 0.34536200761795044 0.9130110144615173 0.2059669941663742 0.6835529804229736 0.7002379894256592
          -0.32937899231910706 -0.504131019115448 0.7983490228652954 -0.4715149998664856 -0.45846500992774963 0.7533149719238281
          0.4426420032978058 -0.31004300713539124 0.841392993927002 0.7168530225753784 -0.5298140048980713 0.4532319903373718
          0.21633300185203552 0.19150300323963165 0.9573540091514587 -0.6290220022201538 -0.3782289922237396 0.6791719794273376
          0.947268009185791 -0.32044199109077454 -0.00021399999968707561 0.5721849799156189 -0.6811320185661316 -0.4567979872226715
          -0.25809600949287415 0.9661189913749695 0.000050999999075429514 -0.288455992937088 0.6056730151176453 -0.7415890097618103
          0.06977800279855728 -0.3716669976711273 -0.9257400035858154 -0.21711699664592743 0.34536901116371155 -0.9130060076713562
          -0.20287999510765076 -0.10515099763870239 -0.9735410213470459 0.20596300065517426 0.6835529804229736 -0.7002400159835815
          -0.47151198983192444 -0.4584679901599884 -0.7533149719238281 -0.3295229971408844 -0.5033720135688782 -0.7987679839134216
          0.4426639974117279 -0.31004199385643005 -0.8413810133934021 0.7168520092964172 -0.5298159718513489 -0.45322999358177185
          -0.6290299892425537 -0.3782289922237396 -0.6791650056838989 0.21634000539779663 0.19150200486183167 -0.9573529958724976
          0.5721660256385803 -0.6811820268630981 0.45674699544906616 -0.2883659899234772 0.6056920289993286 0.7416080236434937
          0.30938801169395447 0.9509360194206238 -0.000003000000106112566 0.6703789830207825 0.5418639779090881 0.5069270133972168
          0.40836700797080994 0.4019699990749359 0.8195459842681885 0.6703760027885437 0.5418729782104492 -0.5069220066070557
          0.4083639979362488 0.40196600556373596 -0.8195499777793884 -0.11109299957752228 0.4682700037956238 0.8765739798545837
          0.1025409996509552 0.989313006401062 -0.10365500301122665 0.25496798753738403 0.9005550146102905 0.35212600231170654
          -0.4563409984111786 0.7166200280189514 -0.5274549722671509 0.049929000437259674 0.9285200238227844 0.3679090142250061
          0.25496700406074524 0.9005540013313293 -0.35212698578834534 0.10264799743890762 0.9892820119857788 0.10384800285100937
          -0.45634201169013977 0.716621994972229 0.5274509787559509 0.04994500055909157 0.9285230040550232 -0.3679009974002838
          0.4861440062522888 0.486968994140625 0.7256209850311279 0.5379570126533508 0.49519601464271545 0.6821900010108948
          0.6207950115203857 0.12817400693893433 0.7734240293502808 0.03619899973273277 -0.7907230257987976 0.6111029982566833
          0.6106489896774292 0.02930999919772148 0.791359007358551 -0.7230859994888306 0.4819819927215576 0.49481400847435
          -0.07402999699115753 0.1609259992837906 0.9841859936714172 -0.8900319933891296 -0.3729870021343231 -0.26215100288391113
          -0.8156030178070068 0.4968760013580322 -0.2964920103549957 0.8165069818496704 -0.4860999882221222 0.31148698925971985
          -0.003137999912723899 0.2478100061416626 0.9688040018081665 0.11094199866056442 -0.033973000943660736 0.9932460188865662
          -0.9387990236282349 -0.20630399882793427 0.27585500478744507 -0.8933899998664856 0.40183600783348083 -0.20095500349998474
          -0.2394219934940338 -0.9709159731864929 -0.0001230000052601099 -0.32247599959373474 -0.8635759949684143 -0.38761499524116516
          -0.7070180177688599 0.707194983959198 0.0001880000054370612 -0.33266401290893555 0.877813994884491 0.3446410000324249
          -0.594760000705719 0.7869319915771484 0.16431200504302979 -0.7898020148277283 0.5755370259284973 -0.21205799281597137
          -0.33248499035835266 0.877951979637146 -0.34446200728416443 -0.5946260094642639 0.7870680093765259 -0.16414600610733032
          -0.7897909879684448 0.5755289793014526 0.21212300658226013 -0.6994699835777283 0.49745801091194153 -0.5131049752235413
          -0.11107700318098068 0.46828898787498474 -0.8765659928321838 0.4861519932746887 0.486968994140625 -0.7256150245666504
          0.537551999092102 0.4955280125141144 -0.6822680234909058 -0.07402700185775757 0.16091200709342957 -0.984188973903656
          -0.7230880260467529 0.48197799921035767 -0.49481400847435 0.037519000470638275 -0.7885280251502991 -0.6138529777526855
          -0.8895679712295532 -0.37400099635124207 0.26228299736976624 -0.8156059980392456 0.4968760013580322 0.29648199677467346
          0.619271993637085 0.13044600188732147 -0.7742649912834167 0.6100829839706421 0.03065899945795536 -0.7917439937591553
          0.8165079951286316 -0.4860970079898834 -0.31148800253868103 -0.0031389999203383923 0.24781100451946259 -0.9688029885292053
          -0.9388049840927124 -0.20630300045013428 -0.27583301067352295 0.11094599962234497 -0.03397899866104126 -0.993245005607605
          -0.8933849930763245 0.4018380045890808 0.20097100734710693 -0.32237300276756287 -0.8636299967765808 0.3875809907913208
          -0.6994709968566895 0.49745601415634155 0.5131070017814636 -0.7212799787521362 0.6338850259780884 -0.27918699383735657
          -0.622651994228363 0.3241629898548126 -0.7121959924697876 -0.7214009761810303 0.6328489780426025 0.28121599555015564
          -0.622573971748352 0.322037011384964 0.7132279872894287 -0.6253119707107544 -0.212117001414299 0.750993013381958
          -0.7700120210647583 -0.6059150099754333 0.1998700052499771 -0.8088290095329285 0.4151659905910492 0.4164530038833618
          -0.910165011882782 -0.1545020043849945 0.38435399532318115 -0.8271970152854919 -0.3921490013599396 0.402446985244751
          -0.6721360087394714 0.6984000205993652 0.2459080070257187 0.16879799962043762 -0.951682984828949 0.2565290033817291
          -0.026163000613451004 -0.9461339712142944 -0.32271501421928406 0.6077690124511719 -0.7941139936447144 -0.00007999999797903001
          -0.02621000073850155 -0.9461770057678223 0.3225879967212677 -0.6195200085639954 0.6050879955291748 0.5000640153884888
          -0.790090024471283 0.6129869818687439 -0.0021929999347776175 -0.7552890181541443 0.3471029996871948 0.5559309720993042
          -0.6195709705352783 0.6050940155982971 -0.4999929964542389 -0.7549729943275452 0.3473860025405884 -0.5561820268630981
          -0.6721360087394714 0.6984000205993652 -0.2459069937467575 -0.9101679921150208 -0.15449699759483337 -0.3843500018119812
          -0.8088319897651672 0.4151670038700104 -0.4164470136165619 -0.8271980285644531 -0.39214399456977844 -0.40244999527931213
          -0.6254649758338928 -0.21018600463867188 -0.7514089941978455 -0.7698090076446533 -0.6054019927978516 -0.20219500362873077
          0.16879500448703766 -0.9516810178756714 -0.25653600692749023 -0.6585749983787537 0.22409500181674957 0.7183730006217957
          -0.1333169937133789 -0.9159560203552246 0.3784849941730499 -0.3182249963283539 -0.9107329845428467 -0.26324400305747986
          0.5444570183753967 -0.8387889862060547 -0.0001289999927394092 -0.3182309865951538 -0.9107319712638855 0.2632400095462799
          -0.12924499809741974 -0.9140790104866028 -0.38439100980758667 -0.5914379954338074 0.8063449859619141 -0.002902999985963106
          -0.6591920256614685 0.2221979945898056 -0.7183970212936401 -0.1352120041847229 0.21388199925422668 0.9674569964408875
          -0.07316400110721588 -0.04410500079393387 0.9963439702987671 0.4500569999217987 -0.7525789737701416 0.4807009994983673
          -0.004350000061094761 -0.9999899864196777 -0.0010379999876022339 0.4470660090446472 -0.7512890100479126 -0.4854860007762909
          -0.08141099661588669 -0.04289200156927109 -0.995756983757019 -0.778581976890564 0.27774500846862793 0.5627319812774658
          -0.9928579926490784 0.11929900199174881 -0.0009970000246539712 -0.14074400067329407 0.2138029932975769 -0.9666849970817566
          -0.7777940034866333 0.27676400542259216 -0.564303994178772 -0.44534701108932495 -0.6046429872512817 0.6603580117225647
          -0.757286012172699 -0.653082013130188 -0.001158999977633357 -0.4439089894294739 -0.6045460104942322 -0.6614149808883667
          <InformationKey name="L2_NORM_RANGE" location="vtkDataArray" length="2">
            <Value index="0">
              0.99999930222
            </Value>
            <Value index="1">
              1.0000007778
            </Value>
          </InformationKey>
        </DataArray>
      </PointData>
      <CellData>
      </CellData>
      <Points>
        <DataArray type="Float32" Name="Points" NumberOfComponents="3" format="ascii" RangeMin="0.299361173268456" RangeMax="0.3440580956497788">
          -0.0532739982008934 0.2945820093154907 0.0006580000044777989 -0.05382800102233887 0.29500699043273926 0.007915999740362167
          -0.06481000036001205 0.2977699935436249 0.0006380000268109143 -0.051989998668432236 0.2980619966983795 0.009368999861180782
          -0.05228300020098686 0.2956849932670593 0.0006590000120922923 -0.05382800102233887 0.29500699043273926 -0.006645000074058771
          -0.051989998668432236 0.2980619966983795 -0.008097999729216099 -0.05720200017094612 0.296438992023468 0.015468999743461609
          -0.0627409964799881 0.29818201065063477 0.0191430002450943 -0.07527600228786469 0.29993000626564026 0.0050130002200603485
          -0.07533399760723114 0.3001999855041504 0.0006380000268109143 -0.07553700357675552 0.30022698640823364 0.013520999811589718
          -0.07164199650287628 0.3003470003604889 0.019241999834775925 -0.05720200017094612 0.296438992023468 -0.014197999611496925
          -0.0627409964799881 0.29818201065063477 -0.01787099987268448 -0.07527600228786469 0.29993000626564026 -0.003742000088095665
          -0.07553700357675552 0.30022698640823364 -0.012249999679625034 -0.07164199650287628 0.3003470003604889 -0.01797099970281124
          -0.05198400095105171 0.29969701170921326 0.0006600000197067857 -0.05299999937415123 0.3004100024700165 0.009984999895095825
          -0.05618000030517578 0.30000999569892883 0.016394000500440598 -0.05299999937415123 0.3004100024700165 -0.008713999763131142
          -0.05618000030517578 0.30000999569892883 -0.015123000368475914 -0.06272800266742706 0.3025610148906708 0.0197759997099638
          -0.077844999730587 0.3036949932575226 0.005140999797731638 -0.07783900201320648 0.30357998609542847 0.0006380000268109143
          -0.077844999730587 0.3036949932575226 -0.003869999898597598 -0.07171600311994553 0.30511701107025146 0.019912000745534897
          -0.07787899672985077 0.30143699049949646 0.01510700024664402 -0.0783659964799881 0.30512699484825134 0.009197999723255634
          -0.06272800266742706 0.3025610148906708 -0.018504999577999115 -0.07787899672985077 0.30143699049949646 -0.013836000114679337
          -0.07171600311994553 0.30511701107025146 -0.018641000613570213 -0.0783659964799881 0.30512699484825134 -0.00792699959129095
          -0.049991998821496964 0.3077090084552765 0.0006619999767281115 -0.05135900154709816 0.3071790039539337 0.009658999741077423
          -0.05720999836921692 0.30285999178886414 0.01600099913775921 -0.05135900154709816 0.3071790039539337 -0.00838799960911274
          -0.05720999836921692 0.30285999178886414 -0.0147299999371171 -0.06203500181436539 0.30610400438308716 0.0180479995906353
          -0.07631900161504745 0.30966299772262573 0.0064119999296963215 -0.07590200006961823 0.3095569908618927 0.0006399999838322401
          -0.07631900161504745 0.30966299772262573 -0.005140999797731638 -0.07094500213861465 0.30816400051116943 0.0188790000975132
          -0.07559800148010254 0.30823901295661926 0.017885999754071236 -0.07775399833917618 0.3106209933757782 0.009471000172197819
          -0.06203500181436539 0.30610400438308716 -0.016776999458670616 -0.07559800148010254 0.30823901295661926 -0.016614999622106552
          -0.07094500213861465 0.30816400051116943 -0.017607999965548515 -0.07775399833917618 0.3106209933757782 -0.008200000040233135
          -0.04882499948143959 0.3107590079307556 0.0006629999843426049 -0.04941000044345856 0.31060099601745605 0.010617000050842762
          -0.05610699951648712 0.30918601155281067 0.01659099943935871 -0.04941000044345856 0.31060099601745605 -0.009345999918878078
          -0.05610699951648712 0.30918601155281067 -0.015320000238716602 -0.06015000119805336 0.31061801314353943 0.01812800019979477
          -0.07304199784994125 0.31643199920654297 0.006604999769479036 -0.0745989978313446 0.31731799244880676 0.009872999973595142
          -0.07242000102996826 0.3163209855556488 0.0006419999990612268 -0.07304199784994125 0.31643199920654297 -0.00533400010317564
          -0.0745989978313446 0.31731799244880676 -0.008601999841630459 -0.06845500320196152 0.3136659860610962 0.01901100017130375
          -0.07221300154924393 0.31575700640678406 0.019368000328540802 -0.08072400093078613 0.30953800678253174 0.016176000237464905
          -0.07785700261592865 0.31105899810791016 0.01968899928033352 -0.07524999976158142 0.31557801365852356 0.0234179999679327
          -0.08434999734163284 0.31429699063301086 0.0040259999223053455 -0.06015000119805336 0.31061801314353943 -0.016857000067830086
          -0.07221300154924393 0.31575700640678406 -0.01809700019657612 -0.06845500320196152 0.3136659860610962 -0.017740000039339066
          -0.07785700261592865 0.31105899810791016 -0.018417999148368835 -0.08072400093078613 0.30953800678253174 -0.014905000105500221
          -0.07524999976158142 0.31557801365852356 -0.022146999835968018 -0.08434999734163284 0.31429699063301086 -0.002756000030785799
          -0.04812899976968765 0.31436699628829956 0.0006639999919570982 -0.04886399954557419 0.31439998745918274 0.01080000028014183
          -0.05379800125956535 0.31169599294662476 0.017525000497698784 -0.04886399954557419 0.31439998745918274 -0.009529000148177147
          -0.05379800125956535 0.31169599294662476 -0.0162540003657341 -0.05897599831223488 0.31293898820877075 0.01997699961066246
          -0.07214099913835526 0.32240399718284607 0.008244999684393406 -0.07308600097894669 0.32122498750686646 0.010553999803960323
          -0.07093899697065353 0.3212130069732666 0.0006440000142902136 -0.07214099913835526 0.32240399718284607 -0.00697400001809001
          -0.07308600097894669 0.32122498750686646 -0.00928299967199564 -0.06583499908447266 0.3165169954299927 0.02090900018811226
          -0.06984599679708481 0.31773701310157776 0.018737999722361565 -0.07482799887657166 0.3204500079154968 0.018780000507831573
          -0.08633600175380707 0.31806400418281555 0.02166599966585636 -0.08560200035572052 0.3142220079898834 0.01626499928534031
          -0.08432299643754959 0.30858299136161804 0.023130999878048897 -0.08285800367593765 0.30791300535202026 0.010214000009000301
          -0.08212199807167053 0.3158150017261505 0.022272000089287758 -0.08479999750852585 0.3105889856815338 0.020305000245571136
          -0.08585300296545029 0.31005001068115234 0.0006389999762177467 -0.09081099927425385 0.3011760115623474 0.005286999978125095
          -0.09124699980020523 0.31742700934410095 0.0006399999838322401 -0.08512499928474426 0.31967100501060486 0.007654999848455191
          -0.05897599831223488 0.31293898820877075 -0.018705999478697777 -0.06984599679708481 0.31773701310157776 -0.01746699959039688
          -0.06583499908447266 0.3165169954299927 -0.019638000056147575 -0.07482799887657166 0.3204500079154968 -0.017510000616312027
          -0.08560200035572052 0.3142220079898834 -0.0149940000846982 -0.08633600175380707 0.31806400418281555 -0.020394999533891678
          -0.08432299643754959 0.30858299136161804 -0.021859999746084213 -0.08285800367593765 0.30791300535202026 -0.008942999877035618
          -0.08479999750852585 0.3105889856815338 -0.019034000113606453 -0.08212199807167053 0.3158150017261505 -0.020999999716877937
          -0.09081099927425385 0.3011760115623474 -0.004015999846160412 -0.08512499928474426 0.31967100501060486 -0.006384000182151794
          -0.06072799861431122 0.3186950087547302 0.0006440000142902136 -0.05305499956011772 0.31561100482940674 0.017758000642061234
          -0.0587799996137619 0.31766900420188904 0.020911000669002533 -0.05305499956011772 0.31561100482940674 -0.01648700051009655
          -0.0587799996137619 0.31766900420188904 -0.01964000053703785 -0.06631000339984894 0.31978800892829895 0.021035000681877136
          -0.08253499865531921 0.3267109990119934 0.015186999924480915 -0.07425100356340408 0.3218289911746979 0.01346299983561039
          -0.08281899988651276 0.3244970142841339 0.009788000024855137 -0.07066299766302109 0.3214940130710602 0.016203999519348145
          -0.07425100356340408 0.3218289911746979 -0.012191999703645706 -0.08253499865531921 0.3267109990119934 -0.013915999792516232
          -0.08281899988651276 0.3244970142841339 -0.008516999892890453 -0.07066299766302109 0.3214940130710602 -0.014933000318706036
          -0.08305799961090088 0.32075798511505127 0.019948000088334084 -0.08169499784708023 0.32300299406051636 0.017364000901579857
          -0.09351100027561188 0.32930800318717957 0.03446599841117859 -0.09043300151824951 0.32056498527526855 0.01981700025498867
          -0.08519800007343292 0.32272499799728394 0.019982999190688133 -0.09682899713516235 0.3087019920349121 0.012133000418543816
          -0.09292399883270264 0.3088729977607727 0.014709999784827232 -0.09576000273227692 0.3216579854488373 0.023669999092817307
          -0.08947599679231644 0.3180199861526489 0.012165999971330166 -0.08366099745035172 0.30639898777008057 0.011547000147402287
          -0.09740599989891052 0.3054490089416504 0.016138000413775444 -0.08525200188159943 0.31702500581741333 0.02456600032746792
          -0.08697400242090225 0.31567299365997314 0.0224590003490448 -0.08658599853515625 0.32156500220298767 0.022766999900341034
          -0.09212400019168854 0.3059070110321045 0.0006380000268109143 -0.09076300263404846 0.30029600858688354 0.006730999797582626
          -0.10228200256824493 0.3099989891052246 0.0006389999762177467 -0.09275799989700317 0.3148669898509979 0.005144000053405762
          -0.08973199874162674 0.31307199597358704 0.008185000158846378 -0.08894199877977371 0.3164989948272705 0.010096999816596508
          -0.09275799989700317 0.3148669898509979 -0.003872999921441078 -0.08973199874162674 0.31307199597358704 -0.006914000026881695
          -0.08894199877977371 0.3164989948272705 -0.008825999684631824 -0.08593200147151947 0.3203499913215637 0.010959000326693058
          -0.06631000339984894 0.31978800892829895 -0.019764000549912453 -0.08305799961090088 0.32075798511505127 -0.0186769999563694
          -0.08169499784708023 0.32300299406051636 -0.016093000769615173 -0.09292399883270264 0.3088729977607727 -0.013438999652862549
          -0.09682899713516235 0.3087019920349121 -0.010862000286579132 -0.09043300151824951 0.32056498527526855 -0.018546000123023987
          -0.09576000273227692 0.3216579854488373 -0.022399000823497772 -0.08947599679231644 0.3180199861526489 -0.010894999839365482
          -0.09351100027561188 0.32930800318717957 -0.033107999712228775 -0.08519800007343292 0.32272499799728394 -0.0187120009213686
          -0.08366099745035172 0.30639898777008057 -0.010276000015437603 -0.09740599989891052 0.3054490089416504 -0.01486700028181076
          -0.08697400242090225 0.31567299365997314 -0.021188000217080116 -0.08525200188159943 0.31702500581741333 -0.023295000195503235
          -0.08658599853515625 0.32156500220298767 -0.02149599976837635 -0.09076300263404846 0.30029600858688354 -0.00546000013127923
          -0.08593200147151947 0.3203499913215637 -0.009688000194728374 -0.09868499636650085 0.3281869888305664 0.028999000787734985
          -0.08886600285768509 0.32275500893592834 0.01329800020903349 -0.09868499636650085 0.3281869888305664 -0.027641000226140022
          -0.08886600285768509 0.32275500893592834 -0.012027000077068806 -0.0974389985203743 0.3265700042247772 0.03811600059270859
          -0.09932199865579605 0.3251990079879761 0.02976899966597557 -0.09931699931621552 0.3070639967918396 0.009968000464141369
          -0.10026799887418747 0.30354800820350647 0.009465999901294708 -0.09852100163698196 0.30022600293159485 0.01591699942946434
          -0.0963440015912056 0.3103030025959015 0.008684000000357628 -0.09212800115346909 0.29880398511886597 0.012749000452458858
          -0.09219399839639664 0.3033590018749237 0.005483000073581934 -0.0952019989490509 0.3024359941482544 0.0006370000191964209
          -0.09219399839639664 0.3033590018749237 -0.0042119999416172504 -0.10055200010538101 0.31158700585365295 0.004443000070750713
          -0.1101979985833168 0.30198100209236145 0.0006210000137798488 -0.1010809987783432 0.30797699093818665 0.0043390002101659775
          -0.10055200010538101 0.31158700585365295 -0.00317199993878603 -0.1010809987783432 0.30797699093818665 -0.0030690000858157873
          -0.0963440015912056 0.3103030025959015 -0.007412999868392944 -0.10026799887418747 0.30354800820350647 -0.008194999769330025
          -0.09931699931621552 0.3070639967918396 -0.008697999641299248 -0.09852100163698196 0.30022600293159485 -0.014646000228822231
          -0.0974389985203743 0.3265700042247772 -0.036757998168468475 -0.09932199865579605 0.3251990079879761 -0.028411999344825745
          -0.09212800115346909 0.29880398511886597 -0.011478000320494175 -0.10199499875307083 0.3046410083770752 0.0044999998062849045
          -0.10157100111246109 0.3027360141277313 0.005166000220924616 -0.0975859984755516 0.3004379868507385 0.007583000231534243
          -0.10231199860572815 0.2988229990005493 0.0006350000039674342 -0.09758699685335159 0.3004379868507385 -0.006312000099569559
          -0.10157100111246109 0.3027360141277313 -0.0038950000889599323 -0.11643099784851074 0.29507899284362793 0.0006590000120922923
          -0.10199499875307083 0.3046410083770752 -0.0032289999071508646 -0.11147899925708771 0.2929939925670624 0.003604999976232648
          -0.10512799769639969 0.29755398631095886 0.004854999948292971 -0.11337500065565109 0.28696298599243164 0.0029589999467134476
          -0.11396200209856033 0.2868629992008209 0.0006760000251233578 -0.11337500065565109 0.28696298599243164 -0.001601999974809587
          -0.10512799769639969 0.29755398631095886 -0.0035840000491589308 -0.11890000104904175 0.29272401332855225 0.003636999987065792
          -0.11977799981832504 0.2918199896812439 0.0006649999995715916 -0.11147899925708771 0.2929939925670624 -0.002247000113129616
          -0.11890000104904175 0.29272401332855225 -0.0022799998987466097 -0.11813800036907196 0.28950899839401245 0.0041240002028644085
          -0.11682099848985672 0.28776299953460693 0.0006590000120922923 -0.11813800036907196 0.28950899839401245 -0.0027660001069307327
          <InformationKey name="L2_NORM_RANGE" location="vtkDataArray" length="2">
            <Value index="0">
              0.29936117327
            </Value>
            <Value index="1">
              0.34405809565
            </Value>
          </InformationKey>
        </DataArray>
      </Points>
      <Verts>
        <DataArray type="Int64" Name="connectivity" format="ascii" RangeMin="1e+299" RangeMax="-1e+299">
        </DataArray>
        <DataArray type="Int64" Name="offsets" format="ascii" RangeMin="1e+299" RangeMax="-1e+299">
        </DataArray>
      </Verts>
      <Lines>
        <DataArray type="Int64" Name="connectivity" format="ascii" RangeMin="1e+299" RangeMax="-1e+299">
        </DataArray>
        <DataArray type="Int64" Name="offsets" format="ascii" RangeMin="1e+299" RangeMax="-1e+299">
        </DataArray>
      </Lines>
      <Strips>
        <DataArray type="Int64" Name="connectivity" format="ascii" RangeMin="1e+299" RangeMax="-1e+299">
        </DataArray>
        <DataArray type="Int64" Name="offsets" format="ascii" RangeMin="1e+299" RangeMax="-1e+299">
        </DataArray>
      </Strips>
      <Polys>