<?xml version="1.0"?>
<VTKFile type="PolyData" version="0.1" byte_order="LittleEndian" header_type="UInt32" compressor="vtkZLibDataCompressor">
  <PolyData>
    <Piece NumberOfPoints="212" NumberOfVerts="0" NumberOfLines="0" NumberOfStrips="0" NumberOfPolys="424">
      <PointData Normals="Normals">
        <DataArray type="Float32" Name="Normals" NumberOfComponents="3" format="ascii" RangeMin="0.9999993928841304" RangeMax="1.000000660489671">
          0.6478580236434937 -0.7617610096931458 0.0003370000049471855 0.45453500747680664 -0.8706439733505249 0.18808700144290924
          -0.026340000331401825 -0.9996529817581177 0.000014999999621068127 0.951545000076294 -0.0957299992442131 0.2922300100326538
          0.9723659753799438 -0.23346099257469177 0.0002229999954579398 0.45463699102401733 -0.8706420063972473 -0.1878499984741211
          0.9516410231590271 -0.09565799683332443 -0.29193899035453796 0.4635449945926666 -0.7406589984893799 0.4863649904727936
          0.20290599763393402 -0.6407259702682495 0.7404720187187195 -0.37026700377464294 -0.9287880063056946 -0.015999000519514084
          -0.4787830114364624 -0.8779330253601074 -0.000014000000192027073 -0.4155910015106201 -0.8938279747962952 0.16839000582695007
          -0.18964999914169312 -0.6680529713630676 0.7195410132408142 0.4635399878025055 -0.740664005279541 -0.4863620102405548
          0.20290499925613403 -0.6407300233840942 -0.7404689788818359 -0.3702639937400818 -0.9287890195846558 0.01597299985587597
          -0.415585994720459 -0.8938310146331787 -0.1683879941701889 -0.189643993973732 -0.6680579781532288 -0.7195370197296143
          0.9777969717979431 0.2095550000667572 0.00017299999308306724 0.9076979756355286 0.24224300682544708 0.3426400125026703
          0.6559829711914062 0.14309999346733093 0.7410860061645508 0.9078050255775452 0.24228499829769135 -0.3423269987106323
          0.6559839844703674 0.14310400187969208 -0.7410849928855896 0.2353460043668747 0.15230800211429596 0.9599040150642395
          -0.8711599707603455 -0.48952698707580566 -0.03799699991941452 -0.9804670214653015 -0.1966859996318817 -0.000019999999494757503
          -0.871159017086029 -0.48952800035476685 0.03799299895763397 -0.25284698605537415 -0.035002999007701874 0.9668729901313782
          -0.7382810115814209 -0.4086250066757202 0.5366259813308716 -0.9217789769172668 -0.3289250135421753 -0.2052610069513321
          0.2353460043668747 0.15230800211429596 -0.9599040150642395 -0.7382810115814209 -0.4086250066757202 -0.5366259813308716
          -0.25284698605537415 -0.035002999007701874 -0.9668729901313782 -0.9217789769172668 -0.3289250135421753 0.2052610069513321
          0.993598997592926 -0.11296500265598297 0.00037200000951997936 0.9027519822120667 -0.1970909982919693 0.38235199451446533
          0.6143689751625061 0.20134399831295013 0.7628960013389587 0.9028710126876831 -0.19709700345993042 -0.382068008184433
          0.6143710017204285 0.20134299993515015 -0.7628949880599976 0.21934500336647034 0.15620499849319458 0.9630619883537292
          -0.9480429887771606 0.15304400026798248 -0.2789120078086853 -0.9737820029258728 0.22748400270938873 -0.00007899999764049426
          -0.9480530023574829 0.1530359983444214 0.2788810133934021 -0.1452600061893463 0.031897999346256256 0.9888790249824524
          -0.1211950033903122 -0.5307090282440186 0.8388440012931824 -0.7673829793930054 -0.4552859961986542 -0.45148399472236633
          0.21934500336647034 0.15620499849319458 -0.9630619883537292 -0.1211950033903122 -0.5307090282440186 -0.8388440012931824
          -0.1452600061893463 0.031897999346256256 -0.9888790249824524 -0.7673829793930054 -0.4552859961986542 0.45148399472236633
          0.9802970290184021 -0.19753099977970123 0.00021699999342672527 0.912276029586792 -0.24401399493217468 0.3289540112018585
          0.5287950038909912 -0.2984029948711395 0.7945640087127686 0.9123349785804749 -0.24400800466537476 -0.328792005777359
          0.5287950038909912 -0.2984029948711395 -0.7945640087127686 0.1732500046491623 -0.3185440003871918 0.9319409728050232
          -0.9441670179367065 0.18405799567699432 -0.27326101064682007 -0.3962070047855377 0.18687500059604645 -0.8989430069923401
          -0.9904279708862305 0.138031005859375 -0.00015799999528098851 -0.9441959857940674 0.18403999507427216 0.27317100763320923
          -0.3961949944496155 0.18686500191688538 0.8989499807357788 -0.033264998346567154 -0.2991339862346649 0.9536309838294983
          0.19122099876403809 0.08825299888849258 0.9775710105895996 -0.16399599611759186 -0.9712769985198975 0.17241400480270386
          -0.2987250089645386 -0.6121670007705688 0.7321310043334961 0.07008799910545349 -0.10740199685096741 0.9917420148849487
          0.6683279871940613 0.03030399978160858 -0.7432489991188049 0.1732500046491623 -0.3185440003871918 -0.9319409728050232
          0.19122099876403809 0.08825299888849258 -0.9775710105895996 -0.033264998346567154 -0.2991339862346649 -0.9536309838294983
          -0.2987250089645386 -0.6121670007705688 -0.7321310043334961 -0.16399799287319183 -0.9712769985198975 -0.1724119931459427
          0.07008799910545349 -0.10740199685096741 -0.9917420148849487 0.6684960126876831 0.030358999967575073 0.7430959939956665
          0.9032670259475708 0.42907801270484924 0.00018200000340584666 0.776187002658844 0.5311959981918335 0.33965399861335754
          0.5615910291671753 -0.29071399569511414 0.7746620178222656 0.7762290239334106 0.5312219858169556 -0.3395180106163025
          0.5615929961204529 -0.290708988904953 -0.7746620178222656 0.13236099481582642 -0.35295501351356506 0.9262310266494751
          -0.4405199885368347 0.8251500129699707 -0.3536520004272461 -0.2997730076313019 0.022783000022172928 -0.9537389874458313
          -0.6537439823150635 0.7567160129547119 -0.00023400000645779073 -0.4405669867992401 0.8251850008964539 0.3535119891166687
          -0.29976099729537964 0.02277499996125698 0.9537420272827148 -0.1585569977760315 -0.1299169957637787 0.9787650108337402
          -0.2289319932460785 0.32468798756599426 0.917697012424469 0.049887001514434814 0.7504870295524597 0.6589999794960022
          -0.219868004322052 -0.5437880158424377 0.8099089860916138 -0.3515329957008362 -0.5423489809036255 0.7630739808082581
          0.49378499388694763 -0.25543200969696045 0.8312219977378845 0.7901960015296936 -0.41466599702835083 0.4512690007686615
          0.14584499597549438 0.18295300006866455 0.9722440242767334 -0.526839017868042 -0.4992470145225525 0.6878899931907654
          0.9867669939994812 -0.16214199364185333 -0.00020799999765586108 0.6639099717140198 -0.5856249928474426 -0.4650450050830841
          -0.4273799955844879 0.9040719866752625 0.00005999999848427251 -0.3830130100250244 0.5518959760665894 -0.7407510280609131
          0.13236099481582642 -0.35295501351356506 -0.9262310266494751 -0.2289319932460785 0.32468798756599426 -0.917697012424469
          -0.1585569977760315 -0.1299169957637787 -0.9787650108337402 0.049887001514434814 0.7504870295524597 -0.6589999794960022
          -0.3515309989452362 -0.542352020740509 -0.7630730271339417 -0.21987000107765198 -0.5437899827957153 -0.8099070191383362
          0.49378499388694763 -0.25543200969696045 -0.8312219977378845 0.7901960015296936 -0.4146580100059509 -0.4512749910354614
          -0.526839017868042 -0.4992470145225525 -0.6878899931907654 0.14584499597549438 0.18295300006866455 -0.9722440242767334
          0.6639059782028198 -0.585669994354248 0.46499401330947876 -0.38292500376701355 0.5519220232963562 0.7407770156860352
          0.0890519991517067 0.9960269927978516 -0.000004999999873689376 0.5338349938392639 0.6606590151786804 0.5277780294418335
          0.30188900232315063 0.47046199440956116 0.8291730284690857 0.5338289737701416 0.6606720089912415 -0.5277680158615112
          0.3018929958343506 0.47047099471092224 -0.8291670083999634 -0.1896360069513321 0.446476012468338 0.8744699954986572
          -0.06872300058603287 0.9921119809150696 -0.10483500361442566 0.11031600087881088 0.9686570167541504 0.2225620001554489
          -0.558692991733551 0.6347360014915466 -0.5338280200958252 -0.08580300211906433 0.9476959705352783 0.30742499232292175
          0.1103150025010109 0.9686579704284668 -0.22256000339984894 -0.06872499734163284 0.9921119809150696 0.10483799874782562
          -0.558692991733551 0.6347320079803467 0.5338339805603027 -0.08578900247812271 0.9476990103721619 -0.3074209988117218
          0.33232900500297546 0.5844370126724243 0.7402639985084534 0.3694149851799011 0.6530579924583435 0.6610959768295288
          0.508545994758606 0.2766520082950592 0.8153799772262573 0.1998099982738495 -0.6975650191307068 0.6880980134010315
          0.5456920266151428 0.17278699576854706 0.8199779987335205 -0.7807120084762573 0.3599660098552704 0.5107960104942322
          -0.09900200366973877 0.14724299311637878 0.9841330051422119 -0.7827720046043396 -0.5423420071601868 -0.3051770031452179
          -0.8780069947242737 0.36401501297950745 -0.3107999861240387 0.8784700036048889 -0.3617999851703644 0.31207698583602905
          -0.06319200247526169 0.24271099269390106 0.968038022518158 0.10304400324821472 -0.010700000450015068 0.9946190118789673
          -0.8734549880027771 -0.3866159915924072 0.2959820032119751 -0.9458360075950623 0.2523860037326813 -0.20419499278068542
          -0.05093200132250786 -0.9987019896507263 -0.00011999999696854502 -0.1407880038022995 -0.9097219705581665 -0.39061999320983887
          -0.808659017086029 0.5882769823074341 0.00020799999765586108 -0.46970298886299133 0.8117939829826355 0.34694400429725647
          -0.7146350145339966 0.6795650124549866 0.16579699516296387 -0.8679620027542114 0.44532400369644165 -0.21983900666236877
          -0.4695639908313751 0.8119519948959351 -0.346763014793396 -0.7145349979400635 0.6797119975090027 -0.16562600433826447
          -0.8679500222206116 0.4453139901161194 0.2199060022830963 -0.7586349844932556 0.37948301434516907 -0.5295900106430054
          -0.1896349936723709 0.4464789927005768 -0.8744680285453796 0.33232900500297546 0.5844370126724243 -0.7402639985084534
          0.36941298842430115 0.6530609726905823 -0.6610940098762512 -0.09899900108575821 0.1472499966621399 -0.9841319918632507
          -0.7807109951972961 0.3599660098552704 -0.5107970237731934 0.1998099982738495 -0.6975669860839844 -0.6880959868431091
          -0.7827699780464172 -0.5423460006713867 0.3051759898662567 -0.878013014793396 0.3640100061893463 0.31078898906707764
          0.5085449814796448 0.27665600180625916 -0.8153790235519409 0.5456920266151428 0.17278699576854706 -0.8199779987335205
          0.8784700036048889 -0.3617999851703644 -0.31207698583602905 -0.06319499760866165 0.2427159994840622 -0.9680370092391968
          -0.8734549880027771 -0.3866159915924072 -0.2959820032119751 0.10304400324821472 -0.010700000450015068 -0.9946190118789673
          -0.9458360075950623 0.2523860037326813 0.20419499278068542 -0.1406709998846054 -0.9097539782524109 0.3905870020389557
          -0.7586359977722168 0.37948301434516907 0.529587984085083 -0.807142972946167 0.48278701305389404 -0.3397589921951294
          -0.6366580128669739 0.15818700194358826 -0.7547469735145569 -0.8071439862251282 0.48278599977493286 0.3397589921951294
          -0.6366590261459351 0.15818500518798828 0.7547469735145569 -0.5463219881057739 -0.271124005317688 0.7924799919128418
          -0.6515489816665649 -0.7076320052146912 0.273389995098114 -0.854960024356842 0.27889201045036316 0.4373370110988617
          -0.8528730273246765 -0.3254550099372864 0.40827199816703796 -0.732001006603241 -0.5398640036582947 0.4155980050563812
          -0.7675279974937439 0.5869629979133606 0.2576349973678589 0.3253040015697479 -0.9111350178718567 0.25300100445747375
          0.1426129937171936 -0.934794008731842 -0.32530200481414795 0.7207249999046326 -0.6932209730148315 -0.00008199999865610152
          0.14257700741291046 -0.9348440170288086 0.3251760005950928 -0.700160026550293 0.49303001165390015 0.5164269804954529
          -0.8097270131111145 0.5868070125579834 -0.0006510000093840063 -0.7867209911346436 0.21740899980068207 0.5777570009231567
          -0.7002210021018982 0.49302801489830017 -0.5163469910621643 -0.7864720225334167 0.21773800253868103 -0.5779719948768616
          -0.7675290107727051 0.5869609713554382 -0.25763601064682007 -0.8528779745101929 -0.32544898986816406 -0.40826699137687683
          -0.8549619913101196 0.2788879871368408 -0.43733400106430054 -0.7320029735565186 -0.5398619771003723 -0.41559600830078125
          -0.5463219881057739 -0.271124005317688 -0.7924799919128418 -0.6515489816665649 -0.7076320052146912 -0.273389995098114
          0.325298011302948 -0.9111369848251343 -0.25300198793411255 -0.6627939939498901 0.16300299763679504 0.7308449745178223
          -0.1205729991197586 -0.9470070004463196 0.29772499203681946 -0.12959299981594086 -0.9566500186920166 -0.2608189880847931
          0.6440939903259277 -0.7649459838867188 0.00003300000025774352 -0.12959499657154083 -0.9566500186920166 0.2608169913291931
          -0.1206040009856224 -0.9469900131225586 -0.2977679967880249 -0.6559990048408508 0.7547609806060791 -0.0012550000101327896
          -0.6619390249252319 0.16264699399471283 -0.7316989898681641 -0.07883100211620331 0.2168010026216507 0.9730280041694641
          -0.06042400002479553 -0.001943000010214746 0.9981709718704224 0.5375289916992188 -0.7357190251350403 0.4120430052280426
          0.07860899716615677 -0.9969050288200378 -0.0004400000034365803 0.53752601146698 -0.7357169985771179 -0.4120520055294037
          -0.060451000928878784 -0.0019239999819546938 -0.9981690049171448 -0.8214690089225769 0.1501930058002472 0.5501199960708618
          -0.9966790080070496 -0.08142799884080887 -0.0009519999730400741 -0.078186996281147 0.21596600115299225 -0.9732649922370911
          -0.8205509781837463 0.14969399571418762 -0.5516219735145569 -0.3523609936237335 -0.6375529766082764 0.6851040124893188
          -0.6747900247573853 -0.738008975982666 -0.0008769999840296805 -0.3516150116920471 -0.6373729705810547 -0.6856549978256226
          <InformationKey name="L2_NORM_RANGE" location="vtkDataArray" length="2">
            <Value index="0">
              0.99999939288
            </Value>
            <Value index="1">
              1.0000006605
            </Value>
          </InformationKey>
        </DataArray>
      </PointData>
      <CellData>
      </CellData>
      <Points>
        <DataArray type="Float32" Name="Points" NumberOfComponents="3" format="ascii" RangeMin="0.23077688852618775" RangeMax="0.27646688674481495">
          -0.06245899945497513 0.22216400504112244 0.00002300000051036477 -0.06315899640321732 0.2224860042333603 0.0076430002227425575
          -0.07594700157642365 0.22304600477218628 0.000003000000106112566 -0.06171099841594696 0.22602300345897675 0.00916799996048212
          -0.06157099828124046 0.22350800037384033 0.00002499999936844688 -0.06315899640321732 0.2224860042333603 -0.0076430002227425575
          -0.06171099841594696 0.22602300345897675 -0.00916799996048212 -0.06720300018787384 0.2232609987258911 0.015572000294923782
          -0.07372099906206131 0.22390300035476685 0.019429000094532967 -0.08804100006818771 0.2230910062789917 0.004596000071614981
          -0.08815799653530121 0.22335700690746307 0.000003000000106112566 -0.08838900178670883 0.22334299981594086 0.013527999632060528
          -0.08407100290060043 0.2242790013551712 0.019533000886440277 -0.06720300018787384 0.2232609987258911 -0.015572000294923782
          -0.07372099906206131 0.22390300035476685 -0.019429000094532967 -0.08804100006818771 0.2230910062789917 -0.004596000071614981
          -0.08838900178670883 0.22334299981594086 -0.013527999632060528 -0.08407100290060043 0.2242790013551712 -0.019533000886440277
          -0.0620260015130043 0.2277120053768158 0.00002499999936844688 -0.06329800188541412 0.22823500633239746 0.009816000238060951
          -0.06676600128412247 0.22715899348258972 0.01654299907386303 -0.06329800188541412 0.22823500633239746 -0.009816000238060951
          -0.06676600128412247 0.22715899348258972 -0.01654299907386303 -0.07456699758768082 0.22842499613761902 0.020093999803066254
          -0.0916450023651123 0.22644099593162537 0.004730000160634518 -0.09161599725484848 0.2263229936361313 0.000003000000106112566
          -0.0916450023651123 0.22644099593162537 -0.004730000160634518 -0.0850910022854805 0.22918599843978882 0.020237000659108162
          -0.09123899787664413 0.22410300374031067 0.015192000195384026 -0.09250699728727341 0.22780899703502655 0.008988999761641026
          -0.07456699758768082 0.22842499613761902 -0.020093999803066254 -0.09123899787664413 0.22410300374031067 -0.015192000195384026
          -0.0850910022854805 0.22918599843978882 -0.020237000659108162 -0.09250699728727341 0.22780899703502655 -0.008988999761641026
          -0.06137999892234802 0.236395001411438 0.000028000000384054147 -0.06279999762773514 0.2355629950761795 0.009472999721765518
          -0.06847400218248367 0.22988499701023102 0.016131000593304634 -0.06279999762773514 0.2355629950761795 -0.009472999721765518
          -0.06847400218248367 0.22988499701023102 -0.016131000593304634 -0.07449200004339218 0.23222500085830688 0.018279999494552612
          -0.0911170020699501 0.23291799426078796 0.0060640000738203526 -0.09063100069761276 0.23289500176906586 0.000004999999873689376
          -0.0911170020699501 0.23291799426078796 -0.0060640000738203526 -0.08483000099658966 0.23249199986457825 0.01915300078690052
          -0.09003300219774246 0.23159900307655334 0.0181099995970726 -0.09290499985218048 0.2336069941520691 0.009274999611079693
          -0.07449200004339218 0.23222500085830688 -0.018279999494552612 -0.09003300219774246 0.23159900307655334 -0.0181099995970726
          -0.08483000099658966 0.23249199986457825 -0.01915300078690052 -0.09290499985218048 0.2336069941520691 -0.009274999611079693
          -0.06067800149321556 0.23978599905967712 0.000029000000722589903 -0.061298999935388565 0.2395009994506836 0.010479000397026539
          -0.06848800182342529 0.2366430014371872 0.01675100065767765 -0.061298999935388565 0.2395009994506836 -0.010479000397026539
          -0.06848800182342529 0.2366430014371872 -0.01675100065767765 -0.07327800244092941 0.23727700114250183 0.01836399920284748
          -0.08922500163316727 0.24017900228500366 0.006266999989748001 -0.09113399684429169 0.24076899886131287 0.009697999805212021
          -0.08850999921560287 0.24019399285316467 0.000007000000096013537 -0.08922500163316727 0.24017900228500366 -0.006266999989748001
          -0.09113500267267227 0.24076899886131287 -0.009697999805212021 -0.08313500136137009 0.23869000375270844 0.019291000440716743
          -0.08773600310087204 0.24006399512290955 0.019665999338030815 -0.09600300341844559 0.23186999559402466 0.016315000131726265
          -0.09310600161552429 0.23403699696063995 0.020003000274300575 -0.09151899814605713 0.23883700370788574 0.023917999118566513
          -0.10098200291395187 0.23602400720119476 0.0035600000992417336 -0.07327800244092941 0.23727700114250183 -0.01836399920284748
          -0.08773600310087204 0.24006399512290955 -0.019665999338030815 -0.08313500136137009 0.23869000375270844 -0.019291000440716743
          -0.09310600161552429 0.23403699696063995 -0.020003000274300575 -0.09600300341844559 0.23186999559402466 -0.016315000131726265
          -0.09151899814605713 0.23883700370788574 -0.023917999118566513 -0.10098200291395187 0.23602400720119476 -0.0035600000992417336
          -0.060610998421907425 0.2436549961566925 0.000029000000722589903 -0.061438001692295074 0.24353499710559845 0.010672000236809254
          -0.06640700250864029 0.23971499502658844 0.01773099973797798 -0.061438001692295074 0.24353499710559845 -0.010672000236809254
          -0.06640700250864029 0.23971499502658844 -0.01773099973797798 -0.07242400199174881 0.23991699516773224 0.020305000245571136
          -0.08939400315284729 0.24652999639511108 0.007988999597728252 -0.0902160033583641 0.2451159954071045 0.010413000360131264
          -0.08781900256872177 0.24555200338363647 0.000009000000318337698 -0.08939400315284729 0.24652999639511108 -0.007988999597728252
          -0.0902160033583641 0.2451159954071045 -0.010413000360131264 -0.08077500015497208 0.2421790063381195 0.02128399908542633
          -0.08591700345277786 0.24219299852848053 0.01900400035083294 -0.09459300339221954 0.24573099613189697 0.01904899999499321
          -0.10393500328063965 0.23949599266052246 0.022079000249505043 -0.10236299782991409 0.23568500578403473 0.016409000381827354
          -0.09982799738645554 0.23013299703598022 0.02361699938774109 -0.09806299954652786 0.2297469973564148 0.01005600020289421
          -0.09879600256681442 0.2380550056695938 0.022714000195264816 -0.10075400024652481 0.23210300505161285 0.020648999139666557
          -0.10182200372219086 0.23132699728012085 0.000003000000106112566 -0.10560499876737595 0.2211350053548813 0.004883000161498785
          -0.10928600281476974 0.23781399428844452 0.000004999999873689376 -0.10290099680423737 0.24140700697898865 0.007368999999016523
          -0.07242400199174881 0.23991699516773224 -0.020305000245571136 -0.08591700345277786 0.24219299852848053 -0.01900400035083294
          -0.08077500015497208 0.2421790063381195 -0.02128399908542633 -0.09459300339221954 0.24573099613189697 -0.01904899999499321
          -0.10236299782991409 0.23568500578403473 -0.016409000381827354 -0.10393500328063965 0.23949599266052246 -0.022079000249505043
          -0.09982799738645554 0.23013299703598022 -0.02361699938774109 -0.09806299954652786 0.2297469973564148 -0.01005600020289421
          -0.10075400024652481 0.23210300505161285 -0.020648999139666557 -0.09879600256681442 0.2380550056695938 -0.022714000195264816
          -0.10560499876737595 0.2211350053548813 -0.004883000161498785 -0.10290099680423737 0.24140700697898865 -0.007368999999016523
          -0.07550899684429169 0.24549199640750885 0.000009000000318337698 -0.06634899973869324 0.24390999972820282 0.017976000905036926
          -0.07313600182533264 0.24483899772167206 0.021285999566316605 -0.06634899973869324 0.24390999972820282 -0.017976000905036926
          -0.07313600182533264 0.24483899772167206 -0.021285999566316605 -0.08194799721240997 0.24545499682426453 0.02141599915921688
          -0.10139799863100052 0.24921399354934692 0.015275999903678894 -0.09163299947977066 0.24549600481987 0.013465999625623226
          -0.10127899795770645 0.24686899781227112 0.009607999585568905 -0.08756700158119202 0.2458990067243576 0.01634399965405464
          -0.09163299947977066 0.24549600481987 -0.013465999625623226 -0.10139799863100052 0.24921399354934692 -0.015275999903678894
          -0.10127899795770645 0.24686899781227112 -0.009607999585568905 -0.08756700158119202 0.2458990067243576 -0.01634399965405464
          -0.10081099718809128 0.24296100437641144 0.020274000242352486 -0.09973199665546417 0.24556200206279755 0.017562000080943108
          -0.11414600163698196 0.2496030032634735 0.03321100026369095 -0.1089949980378151 0.24122199416160583 0.0201370008289814
          -0.10358300060033798 0.24454499781131744 0.020312000066041946 -0.1137939989566803 0.22764499485492706 0.012070000171661377
          -0.10947400331497192 0.2286369949579239 0.014775999821722507 -0.11514899879693985 0.24123899638652802 0.024181999266147614
          -0.10742799937725067 0.23879599571228027 0.012105000205338001 -0.09866099804639816 0.22801700234413147 0.011455999687314034
          -0.11379799991846085 0.22416800260543823 0.01627499982714653 -0.10252299904823303 0.23864999413490295 0.025123000144958496
          -0.10417799651622772 0.23689599335193634 0.02291099913418293 -0.10490299761295319 0.2430579960346222 0.02323400042951107
          -0.10799899697303772 0.22574299573898315 0.000003000000106112566 -0.10537900030612946 0.22023700177669525 0.006399000063538551
          -0.12012799829244614 0.22784599661827087 0.000003999999989900971 -0.11046700179576874 0.2348569929599762 0.004732999950647354
          -0.10674100369215012 0.2336360067129135 0.007925000041723251 -0.10653399676084518 0.23733800649642944 0.009933000430464745
          -0.11046700179576874 0.2348569929599762 -0.004732999950647354 -0.10674100369215012 0.2336360067129135 -0.007925000041723251
          -0.10653399676084518 0.23733800649642944 -0.009933000430464745 -0.10393500328063965 0.24194000661373138 0.010838000103831291
          -0.08194799721240997 0.24545499682426453 -0.02141599915921688 -0.10081099718809128 0.24296100437641144 -0.020274000242352486
          -0.09973199665546417 0.24556200206279755 -0.017562000080943108 -0.10947400331497192 0.2286369949579239 -0.014775999821722507
          -0.1137939989566803 0.22764499485492706 -0.012070000171661377 -0.1089949980378151 0.24122199416160583 -0.0201370008289814
          -0.11514899879693985 0.24123899638652802 -0.024181999266147614 -0.10742799937725067 0.23879599571228027 -0.012105000205338001
          -0.11414600163698196 0.2496030032634735 -0.03321100026369095 -0.10358300060033798 0.24454499781131744 -0.020312000066041946
          -0.09866099804639816 0.22801700234413147 -0.011455999687314034 -0.11379799991846085 0.22416800260543823 -0.01627499982714653
          -0.10417799651622772 0.23689599335193634 -0.02291099913418293 -0.10252299904823303 0.23864999413490295 -0.025123000144958496
          -0.10490299761295319 0.2430579960346222 -0.02323400042951107 -0.10537900030612946 0.22023700177669525 -0.006399000063538551
          -0.10393500328063965 0.24194000661373138 -0.010838000103831291 -0.11969300359487534 0.24736599624156952 0.027837000787258148
          -0.10767900198698044 0.2438099980354309 0.013292999938130379 -0.11969300359487534 0.24736599624156952 -0.027837000787258148
          -0.10767900198698044 0.2438099980354309 -0.013292999938130379 -0.11798600107431412 0.24595800042152405 0.03679800033569336
          -0.11981700360774994 0.24414999783039093 0.02859400026500225 -0.11624699831008911 0.2254360020160675 0.009797999635338783
          -0.11661499738693237 0.22160999476909637 0.00927099958062172 -0.11401499807834625 0.21854500472545624 0.016042999923229218
          -0.11356800049543381 0.22939899563789368 0.008449999615550041 -0.10660699754953384 0.21841299533843994 0.01271700020879507
          -0.10757700353860855 0.2230989933013916 0.00508899986743927 -0.11074800044298172 0.22151899337768555 9.999999974752427e-7
          -0.10757700353860855 0.2230989933013916 -0.00508899986743927 -0.11851199716329575 0.22984600067138672 0.0039969999343156815
          -0.12737800180912018 0.21792000532150269 -0.000014999999621068127 -0.11839299649000168 0.22600999474525452 0.003889000043272972
          -0.11851199716329575 0.22984600067138672 -0.0039969999343156815 -0.11839299649000168 0.22600999474525452 -0.003889000043272972
          -0.11356800049543381 0.22939899563789368 -0.008449999615550041 -0.11661499738693237 0.22160999476909637 -0.00927099958062172
          -0.11624699831008911 0.2254360020160675 -0.009797999635338783 -0.11401499807834625 0.21854500472545624 -0.016042999923229218
          -0.11798600107431412 0.24595800042152405 -0.03679800033569336 -0.11981700360774994 0.24414999783039093 -0.02859400026500225
          -0.10660699754953384 0.21841299533843994 -0.01271700020879507 -0.118756003677845 0.2223770022392273 0.004056999925523996
          -0.11790899932384491 0.22049899399280548 0.004755999892950058 -0.11301399767398834 0.2189600020647049 0.0072929998859763145
          -0.11796499788761139 0.21630600094795227 0 -0.11301399767398834 0.2189600020647049 -0.0072929998859763145
          -0.11790899932384491 0.22049899399280548 -0.004755999892950058 -0.13419100642204285 0.21199600398540497 -0.000018999999156221747
          -0.118756003677845 0.2223770022392273 -0.004056999925523996 -0.1266389936208725 0.21113699674606323 0.004412999842315912
          -0.12085500359535217 0.21441000699996948 0.004430000204592943 -0.12763099372386932 0.20370399951934814 0.00343999988399446
          -0.12939999997615814 0.2033119946718216 -0.000003000000106112566 -0.12763099372386932 0.20370399951934814 -0.00343999988399446
          -0.12085500359535217 0.21441000699996948 -0.004430000204592943 -0.13568900525569916 0.20915299654006958 0.004461999982595444
          -0.13658800721168518 0.20801900327205658 -0.00002099999983329326 -0.1266389936208725 0.21113699674606323 -0.004412999842315912
          -0.13568900525569916 0.20915299654006958 -0.004461999982595444 -0.1341239959001541 0.20601099729537964 0.00519599998369813
          -0.13323600590229034 0.20435699820518494 -0.000019999999494757503 -0.1341239959001541 0.20601099729537964 -0.00519599998369813
          <InformationKey name="L2_NORM_RANGE" location="vtkDataArray" length="2">
            <Value index="0">
              0.23077688853
            </Value>
            <Value index="1">
              0.27646688674
            </Value>
          </InformationKey>
        </DataArray>
      </Points>
      <Verts>
        <DataArray type="Int64" Name="connectivity" format="ascii" RangeMin="1e+299" RangeMax="-1e+299">
        </DataArray>
        <DataArray type="Int64" Name="offsets" format="ascii" RangeMin="1e+299" RangeMax="-1e+299">
        </DataArray>
      </Verts>
      <Lines>
        <DataArray type="Int64" Name="connectivity" format="ascii" RangeMin="1e+299" RangeMax="-1e+299">
        </DataArray>
        <DataArray type="Int64" Name="offsets" format="ascii" RangeMin="1e+299" RangeMax="-1e+299">
        </DataArray>
      </Lines>
      <Strips>
        <DataArray type="Int64" Name="connectivity" format="ascii" RangeMin="1e+299" RangeMax="-1e+299">
        </DataArray>