<?xml version="1.0"?>
<VTKFile type="PolyData" version="0.1" byte_order="LittleEndian" header_type="UInt32" compressor="vtkZLibDataCompressor">
  <PolyData>
    <Piece NumberOfPoints="212" NumberOfVerts="0" NumberOfLines="0" NumberOfStrips="0" NumberOfPolys="424">
      <PointData Normals="Normals">
        <DataArray type="Float32" Name="Normals" NumberOfComponents="3" format="ascii" RangeMin="0.9999993787975962" RangeMax="1.0000007087339224">
          0.9274320006370544 -0.3739910125732422 0.0003640000068116933 0.8084560036659241 -0.5528600215911865 0.20185400545597076
          0.438306987285614 -0.8988249897956848 0.00001700000029813964 0.8906610012054443 0.3278129994869232 0.31505900621414185
          0.9760850071907043 0.2173900008201599 0.00023799999326001853 0.8085489869117737 -0.5528180003166199 -0.2015949934720993
          0.890733003616333 0.3279159963130951 -0.31474700570106506 0.7426990270614624 -0.4388970136642456 0.5057340264320374
          0.4713580012321472 -0.4661349952220917 0.748691976070404 -0.1756879985332489 -0.9842709898948669 -0.018564999103546143
          -0.20780199766159058 -0.9781709909439087 0.00006199999916134402 -0.15009300410747528 -0.9823970198631287 0.11121299862861633
          0.11473199725151062 -0.6865109801292419 0.7180100083351135 0.7426980137825012 -0.4389039874076843 -0.5057299733161926
          0.47135600447654724 -0.46613600850105286 -0.7486929893493652 -0.17568400502204895 -0.9842720031738281 0.018543999642133713
          -0.15008699893951416 -0.9823979735374451 -0.11121100187301636 0.11473699659109116 -0.6865109801292419 -0.7180100083351135
          0.8039299845695496 0.5947239995002747 0.00019500000053085387 0.7214999794960022 0.5795630216598511 0.37887299060821533
          0.5019029974937439 0.387129008769989 0.7734490036964417 0.7215970158576965 0.5796560049057007 -0.37854498624801636
          0.5019000172615051 0.3871299922466278 -0.7734509706497192 0.12998899817466736 0.21087099611759186 0.9688320159912109
          -0.6962389945983887 -0.7078080177307129 0.11941199749708176 -0.7679240107536316 -0.6405410170555115 0.00013600000238511711
          -0.6962540149688721 -0.7078179717063904 -0.11926499754190445 -0.2532140016555786 -0.12263000011444092 0.9596070051193237
          -0.6479290127754211 -0.6761469841003418 0.3507330119609833 -0.6701340079307556 -0.6604350209236145 -0.3387410044670105
          0.12998799979686737 0.21086999773979187 -0.9688330292701721 -0.6479290127754211 -0.6761469841003418 -0.3507330119609833
          -0.2532089948654175 -0.1226319968700409 -0.9596070051193237 -0.6701340079307556 -0.6604350209236145 0.3387410044670105
          0.9577239751815796 0.2876890003681183 0.00038400001358240843 0.9046670198440552 0.17304100096225739 0.38940200209617615
          0.4571459889411926 0.38966599106788635 0.799485981464386 0.9047799706459045 0.17307999730110168 -0.38912200927734375
          0.45714500546455383 0.3896619975566864 -0.7994880080223083 0.14585299789905548 0.17014500498771667 0.9745650291442871
          -0.890733003616333 -0.4117720127105713 -0.19245299696922302 -0.9547119736671448 -0.29753199219703674 -0.00008099999831756577
          -0.8907309770584106 -0.41176900267601013 0.19247199594974518 -0.15789900720119476 0.003976999782025814 0.9874470233917236
          0.08189000189304352 -0.48686501383781433 0.869629979133606 -0.46083301305770874 -0.7121610045433044 -0.5295850038528442
          0.14585599303245544 0.17013999819755554 -0.9745659828186035 0.0818919986486435 -0.48686400055885315 -0.8696309924125671
          -0.15790300071239471 0.0039809998124837875 -0.9874470233917236 -0.46083301305770874 -0.7121610045433044 0.5295850038528442
          0.9774019718170166 0.21139000356197357 0.00021600000036414713 0.932735025882721 0.14987599849700928 0.3279370069503784
          0.6059880256652832 -0.058097001165151596 0.793349027633667 0.9327859878540039 0.14990399777889252 -0.32777899503707886
          0.6059859991073608 -0.05809200182557106 -0.7933509945869446 0.2989549934864044 -0.19457200169563293 0.934220016002655
          -0.9144819974899292 -0.3003090023994446 -0.2711769938468933 -0.3819969892501831 -0.05789000168442726 -0.9223489761352539
          -0.9462839961051941 -0.32333698868751526 -0.00015999999595806003 -0.9145020246505737 -0.3003399968147278 0.2710750102996826
          -0.3819969892501831 -0.05789000168442726 0.9223489761352539 0.10878299921751022 -0.25193700194358826 0.9616100192070007
          0.13683299720287323 0.035673998296260834 0.989952027797699 0.05269400030374527 -0.9750840067863464 0.21548600494861603
          0.039611998945474625 -0.6295580267906189 0.7759429812431335 0.05546199902892113 -0.03630099818110466 0.9978010058403015
          0.6127409934997559 0.2836979925632477 -0.7376070022583008 0.29895299673080444 -0.1945669949054718 -0.9342219829559326
          0.13684000074863434 0.03567200154066086 -0.9899510145187378 0.1087850034236908 -0.25193899869918823 -0.9616100192070007
          0.039611998945474625 -0.6295580267906189 -0.7759429812431335 0.05269400030374527 -0.9750840067863464 -0.21548600494861603
          0.05546199902892113 -0.03630099818110466 -0.9978010058403015 0.6129549741744995 0.28380998969078064 0.7373859882354736
          0.6669650077819824 0.7450889945030212 0.00019200000679120421 0.4977180063724518 0.7924680113792419 0.35252100229263306
          0.6323480010032654 -0.017689000815153122 0.7744830250740051 0.4977540075778961 0.7925090193748474 -0.3523769974708557
          0.6323490142822266 -0.017687000334262848 -0.774482011795044 0.2738189995288849 -0.22699999809265137 0.9346089959144592
          -0.6764289736747742 0.6225720047950745 -0.3935059905052185 -0.18989500403404236 -0.0851529985666275 -0.9781050086021423
          -0.8894389867782593 0.457055002450943 -0.00023700000019744039 -0.6764969825744629 0.6225969791412354 0.3933509886264801
          -0.18989500403404236 -0.0851529985666275 0.9781050086021423 -0.018629999831318855 -0.20353400707244873 0.9788910150527954
          -0.24131199717521667 0.1430159956216812 0.9598510265350342 -0.05962499976158142 0.661903977394104 0.7472130060195923
          -0.5606819987297058 -0.39226898550987244 0.7292199730873108 -0.4516870081424713 -0.557977020740509 0.6961609721183777
          0.33449798822402954 -0.11005900055170059 0.9359480142593384 0.7941840291023254 -0.23824499547481537 0.5590270161628723
          0.09726099669933319 0.2887130081653595 0.9524629712104797 -0.5147600173950195 -0.5633770227432251 0.6462410092353821
          0.9366530179977417 0.3502579927444458 -0.0003589999978430569 0.938418984413147 -0.1123960018157959 -0.3267050087451935
          -0.712693989276886 0.7014750242233276 0.000014999999621068127 -0.4924429953098297 0.39326900243759155 -0.7764269709587097
          0.27382099628448486 -0.22700099647045135 -0.934607982635498 -0.24131199717521667 0.1430159956216812 -0.9598510265350342
          -0.01862500049173832 -0.20354099571704865 -0.978888988494873 -0.05962499976158142 0.661903977394104 -0.7472130060195923
          -0.4516870081424713 -0.557977020740509 -0.6961609721183777 -0.5606849789619446 -0.39226800203323364 -0.7292180061340332
          0.33449798822402954 -0.11005900055170059 -0.9359480142593384 0.7941830158233643 -0.23824599385261536 -0.5590280294418335
          -0.5147550106048584 -0.563372015953064 -0.6462510228157043 0.09725499898195267 0.2887110114097595 -0.9524639844894409
          0.9385150074958801 -0.11241599917411804 0.3264249861240387 -0.49237000942230225 0.39332398772239685 0.7764459848403931
          -0.32130300998687744 0.9469770193099976 9.999999974752427e-7 0.20346599817276 0.8168399930000305 0.5397899746894836
          0.05270100012421608 0.5483369827270508 0.8345950245857239 0.20346200466156006 0.8168429732322693 -0.5397890210151672
          0.05270399898290634 0.5483409762382507 -0.8345919847488403 -0.27662399411201477 0.3872239887714386 0.8795089721679688
          -0.25103500485420227 0.9398810267448425 -0.23152700066566467 -0.022350000217556953 0.9257270097732544 0.3775320053100586
          -0.725845992565155 0.3679629862308502 -0.5811629891395569 -0.45731499791145325 0.787513017654419 0.41314101219177246
          -0.022350000217556953 0.9257270097732544 -0.3775320053100586 -0.2510380148887634 0.9398810267448425 0.23152700066566467
          -0.7258449792861938 0.3679639995098114 0.5811640024185181 -0.457302987575531 0.78752601146698 -0.413129985332489
          0.23058399558067322 0.6203269958496094 0.7496830224990845 0.21089500188827515 0.722690999507904 0.6582109928131104
          -0.2691909968852997 0.5092560052871704 0.8174319863319397 0.06671600043773651 -0.42213600873947144 0.9040740132331848
          0.0458189994096756 0.46122801303863525 0.8860980272293091 -0.8470050096511841 0.006754999980330467 0.5315420031547546
          -0.13563300669193268 0.033229999244213104 0.990202009677887 -0.8560439944267273 -0.28549298644065857 -0.43090900778770447
          -0.8911769986152649 -0.025191999971866608 -0.45295700430870056 0.9406650066375732 0.11861900240182877 0.3179279863834381
          -0.3423439860343933 0.18901300430297852 0.9203659892082214 0.08881700038909912 0.0047519998624920845 0.9960370063781738
          -0.7031430006027222 -0.5780820250511169 0.41401800513267517 -0.9897369742393494 -0.13519999384880066 0.0462770015001297
          -0.04392300173640251 -0.9990350008010864 -0.0002469999890308827 0.22397500276565552 -0.8400009870529175 -0.4941990077495575
          -0.9688739776611328 0.2475530058145523 0.0001900000061141327 -0.7987809777259827 0.4961859881877899 0.34021899104118347
          -0.9053320288658142 0.3771910071372986 0.19519199430942535 -0.9339579939842224 0.26100799441337585 -0.24412399530410767
          -0.7987120151519775 0.4963429868221283 -0.34015199542045593 -0.9052979946136475 0.377344012260437 -0.1950560063123703
          -0.9339410066604614 0.2609950006008148 0.24420300126075745 -0.7557209730148315 0.14227400720119476 -0.6392530202865601
          -0.276621013879776 0.38723498582839966 -0.8795049786567688 0.23058399558067322 0.6203250288963318 -0.7496849894523621
          0.21089300513267517 0.722690999507904 -0.6582109928131104 -0.13563300669193268 0.033229999244213104 -0.990202009677887
          -0.8470050096511841 0.006754999980330467 -0.5315420031547546 0.0667169988155365 -0.42213401198387146 -0.904075026512146
          -0.8560439944267273 -0.285506010055542 0.4309009909629822 -0.8911769986152649 -0.025200000032782555 0.4529559910297394
          -0.2691980004310608 0.509257972240448 -0.8174279928207397 0.0458110012114048 0.46122801303863525 -0.8860980272293091
          0.9406629800796509 0.11860600113868713 -0.31794100999832153 -0.3423439860343933 0.18901300430297852 -0.9203659892082214
          -0.7031350135803223 -0.5780799984931946 -0.41403499245643616 0.08882100135087967 0.0047519998624920845 -0.9960359930992126
          -0.989736020565033 -0.13520300388336182 -0.04628999903798103 0.22389300167560577 -0.8401200175285339 0.494035005569458
          -0.7557219862937927 0.14226999878883362 0.6392520070075989 -0.8984370231628418 0.41163501143455505 -0.1528639942407608
          -0.3675279915332794 0.16899099946022034 -0.9145299792289734 -0.8984360098838806 0.41163599491119385 0.15286700427532196
          -0.36753401160240173 0.16899600625038147 0.9145269989967346 -0.31494200229644775 -0.3925580084323883 0.8641240000724792
          -0.06273599714040756 -0.3303849995136261 0.9417589902877808 -0.9053800106048584 0.0534529983997345 0.42122501134872437
          -0.68961501121521 -0.5538430213928223 0.46657198667526245 -0.5851349830627441 -0.7059910297393799 0.39899200201034546
          -0.9397709965705872 0.17287500202655792 0.2948629856109619 0.3573389947414398 -0.8666830062866211 0.34809398651123047
          0.04066599905490875 -0.9172059893608093 -0.3963319957256317 0.6117640137672424 -0.7910400032997131 -0.0002229999954579398
          0.04050400108098984 -0.9173099994659424 0.396109014749527 -0.8286849856376648 0.13449299335479736 0.5433160066604614
          -0.9076089859008789 0.4198159873485565 -0.000818000000435859 -0.803164005279541 -0.01549299992620945 0.5955560207366943
          -0.8287460207939148 0.1344660073518753 -0.5432299971580505 -0.802944004535675 -0.015025000087916851 -0.59586501121521
          -0.939769983291626 0.17287799715995789 -0.2948650121688843 -0.68961501121521 -0.5538430213928223 -0.46657198667526245
          -0.9053769707679749 0.053449999541044235 -0.4212299883365631 -0.5851349830627441 -0.7059910297393799 -0.39899200201034546
          -0.3149409890174866 -0.3925530016422272 -0.8641260266304016 -0.06273599714040756 -0.3303849995136261 -0.9417589902877808
          0.35733699798583984 -0.8666849732398987 -0.3480919897556305 -0.647471010684967 0.053998999297618866 0.7601749897003174
          0.052925001829862595 -0.6967849731445312 0.7153239846229553 -0.12637700140476227 -0.9855909943580627 -0.11242199689149857
          0.7338629961013794 -0.6792979836463928 -0.00002700000004551839 -0.12637700140476227 -0.9855909943580627 0.11242199689149857
          0.052907999604940414 -0.6967650055885315 -0.715345025062561 -0.8297560214996338 0.5581250190734863 -0.001415999955497682
          -0.6463940143585205 0.053665999323129654 -0.7611140012741089 -0.17367400228977203 0.2157440036535263 0.9608809947967529
          0.05688000097870827 -0.07035999745130539 0.9958990216255188 0.4584659934043884 -0.4720659852027893 0.7529690265655518
          0.33744099736213684 -0.9413470029830933 -0.000522000016644597 0.45844000577926636 -0.4720200002193451 -0.7530140280723572
          0.05686800181865692 -0.0703589990735054 -0.9958990216255188 -0.8038399815559387 -0.18925100564956665 0.5639370083808899
          -0.8905529975891113 -0.4548780024051666 -0.0010229999898001552 -0.1728460043668747 0.21495500206947327 -0.9612069725990295
          -0.802718997001648 -0.1893710047006607 -0.5654919743537903 -0.09177400171756744 -0.7061880230903625 0.7020519971847534
          -0.3640429973602295 -0.9313809871673584 -0.0009919999865815043 -0.09111999720335007 -0.7056540250778198 -0.7026730179786682
          <InformationKey name="L2_NORM_RANGE" location="vtkDataArray" length="2">
            <Value index="0">
              0.9999993788
            </Value>
            <Value index="1">
              1.0000007087
            </Value>
          </InformationKey>
        </DataArray>
      </PointData>
      <CellData>
      </CellData>
      <Points>
        <DataArray type="Float32" Name="Points" NumberOfComponents="3" format="ascii" RangeMin="0.09586023868713484" RangeMax="0.13960694406346924">
          -0.03375000134110451 0.08975400030612946 0.00002499999936844688 -0.034651000052690506 0.08970800042152405 0.008244000375270844
          -0.04830300062894821 0.08280099928379059 0.000003000000106112566 -0.03500799834728241 0.094589002430439 0.009890000335872173
          -0.0335329994559288 0.0918089970946312 0.00002700000004551839 -0.034651000052690506 0.08970800042152405 -0.008244000375270844
          -0.03500799834728241 0.094589002430439 -0.009890000335872173 -0.03928399831056595 0.08820399641990662 0.016798000782728195
          -0.04643100127577782 0.08508999645709991 0.020958000794053078 -0.060394998639822006 0.07699199765920639 0.00495699979364872
          -0.06065800040960312 0.07722499966621399 0.000003000000106112566 -0.060892000794410706 0.07707200199365616 0.014592000283300877
          -0.05743899941444397 0.07941100001335144 0.021071000024676323 -0.03928399831056595 0.08820399641990662 -0.016798000782728195
          -0.04643100127577782 0.08508999645709991 -0.020958000794053078 -0.060394998639822006 0.07699199765920639 -0.00495699979364872
          -0.060892000794410706 0.07707200199365616 -0.014592000283300877 -0.05743899941444397 0.07941100001335144 -0.021071000024676323
          -0.03623000159859657 0.09632500261068344 0.00002700000004551839 -0.03783600032329559 0.09617099910974503 0.01058799959719181
          -0.04088800027966499 0.09290000051259995 0.0178459994494915 -0.03783600032329559 0.09617099910974503 -0.01058799959719181
          -0.04088800027966499 0.09290000051259995 -0.0178459994494915 -0.04970499873161316 0.08973900228738785 0.021676000207662582
          -0.06384000182151794 0.0804940015077591 0.0051020001992583275 -0.06583700329065323 0.07856100052595139 0.000003000000106112566
          -0.06384000182151794 0.0804940015077591 -0.0051020001992583275 -0.06109900027513504 0.08439599722623825 0.021828999742865562
          -0.06426899880170822 0.07625599950551987 0.016388000920414925 -0.06531800329685211 0.08166199922561646 0.009696000255644321
          -0.04970499873161316 0.08973900228738785 -0.021676000207662582 -0.06426899880170822 0.07625599950551987 -0.016388000920414925
          -0.06109900027513504 0.08439599722623825 -0.021828999742865562 -0.06531800329685211 0.08166199922561646 -0.009696000255644321
          -0.03975199908018112 0.10642699897289276 0.000029999999242136255 -0.040738001465797424 0.10474800318479538 0.010219000279903412
          -0.04411400109529495 0.09499499946832657 0.017400000244379044 -0.040738001465797424 0.10474800318479538 -0.010219000279903412
          -0.04411400109529495 0.09499499946832657 -0.017400000244379044 -0.051635000854730606 0.09410899877548218 0.019719000905752182
          -0.06842400133609772 0.08821900188922882 0.006541999988257885 -0.06794200092554092 0.08843400329351425 0.000004999999873689376
          -0.06842400133609772 0.08821900188922882 -0.006541999988257885 -0.06007000058889389 0.09095100313425064 0.020659999921917915
          -0.06675399839878082 0.0872189998626709 0.01953599974513054 -0.07048100233078003 0.08813399821519852 0.010005000047385693
          -0.051635000854730606 0.09410899877548218 -0.019719000905752182 -0.06675399839878082 0.0872189998626709 -0.01953599974513054
          -0.06007000058889389 0.09095100313425064 -0.020659999921917915 -0.07048100233078003 0.08813399821519852 -0.010005000047385693
          -0.04066099971532822 0.11073700338602066 0.00003099999958067201 -0.04112999886274338 0.11009400337934494 0.01130400039255619
          -0.04676000028848648 0.10317999869585037 0.01806900091469288 -0.04112999886274338 0.11009400337934494 -0.01130400039255619
          -0.04676000028848648 0.10317999869585037 -0.01806900091469288 -0.051701001822948456 0.10153699666261673 0.019809000194072723
          -0.0718419998884201 0.09725300222635269 0.00675999978557229 -0.07397100329399109 0.09699200093746185 0.010460999794304371
          -0.07115600258111954 0.09762699902057648 0.000007999999979801942 -0.0718419998884201 0.09725300222635269 -0.00675999978557229
          -0.07397100329399109 0.09699200093746185 -0.010460999794304371 -0.06189600005745888 0.0977569967508316 0.020809000357985497
          -0.06700199842453003 0.09707099944353104 0.02121400088071823 -0.07266999781131744 0.08456400036811829 0.01759899966418743
          -0.07087799906730652 0.08853600174188614 0.021577000617980957 -0.07343699783086777 0.09454499930143356 0.025800000876188278
          -0.07892099767923355 0.09078700095415115 0.0038399999029934406 -0.051701001822948456 0.10153699666261673 -0.019809000194072723
          -0.06700199842453003 0.09707099944353104 -0.02121400088071823 -0.06189600005745888 0.0977569967508316 -0.020809000357985497
          -0.07087799906730652 0.08853600174188614 -0.021577000617980957 -0.07266999781131744 0.08456400036811829 -0.01759899966418743
          -0.07343699783086777 0.09454499930143356 -0.025800000876188278 -0.07892099767923355 0.09078700095415115 -0.0038399999029934406
          -0.04241099953651428 0.11528699845075607 0.00003199999991920777 -0.04315600171685219 0.11473599821329117 0.011510999873280525
          -0.04618300125002861 0.10780200362205505 0.01912599988281727 -0.04315600171685219 0.11473599821329117 -0.011510999873280525
          -0.04618300125002861 0.10780200362205505 -0.01912599988281727 -0.052111998200416565 0.10504399985074997 0.02190300077199936
          -0.07498499751091003 0.10458499938249588 0.008617999963462353 -0.0751190036535263 0.10252399742603302 0.011233000084757805
          -0.0729990005493164 0.1042260006070137 0.000009000000318337698 -0.07498499751091003 0.10458499938249588 -0.008617999963462353
          -0.0751190036535263 0.10252399742603302 -0.011233000084757805 -0.06124399974942207 0.10300499945878983 0.022958999499678612
          -0.06958000361919403 0.10125099867582321 0.020500000566244125 -0.0763079971075058 0.10027600079774857 0.020547999069094658
          -0.08336900174617767 0.0935019999742508 0.023816000670194626 -0.08012600243091583 0.0897430032491684 0.01769999973475933
          -0.07722099870443344 0.08427999913692474 0.025474999099969864 -0.07307799905538559 0.08108899742364883 0.010847999714314938
          -0.07768099755048752 0.09420300275087357 0.024501999840140343 -0.07900799810886383 0.0861700028181076 0.022274000570178032
          -0.07971099764108658 0.084757000207901 0.000003999999989900971 -0.0735040009021759 0.0674939975142479 0.005268000066280365
          -0.08831600099802017 0.09076199680566788 0.000004999999873689376 -0.08320599794387817 0.09623800218105316 0.007949000224471092
          -0.052111998200416565 0.10504399985074997 -0.02190300077199936 -0.06958000361919403 0.10125099867582321 -0.020500000566244125
          -0.06124399974942207 0.10300499945878983 -0.022958999499678612 -0.0763079971075058 0.10027600079774857 -0.020547999069094658
          -0.08012600243091583 0.0897430032491684 -0.01769999973475933 -0.08336900174617767 0.0935019999742508 -0.023816000670194626
          -0.07722099870443344 0.08427999913692474 -0.025474999099969864 -0.07307799905538559 0.08108899742364883 -0.010847999714314938
          -0.07900799810886383 0.0861700028181076 -0.022274000570178032 -0.07768099755048752 0.09420300275087357 -0.024501999840140343
          -0.0735040009021759 0.0674939975142479 -0.005268000066280365 -0.08320599794387817 0.09623800218105316 -0.007949000224471092
          -0.057718001306056976 0.11001899838447571 0.000009999999747378752 -0.04809299856424332 0.1127299964427948 0.01939000003039837
          -0.05511000007390976 0.11043699830770493 0.022960999980568886 -0.04809299856424332 0.1127299964427948 -0.01939000003039837
          -0.05511000007390976 0.11043699830770493 -0.022960999980568886 -0.06391800194978714 0.10624799877405167 0.023101000115275383
          -0.08521000295877457 0.10614299774169922 0.016478000208735466 -0.07667099684476852 0.10226300358772278 0.014526000246405602
          -0.08404800295829773 0.10343500226736069 0.010363999754190445 -0.07291799783706665 0.10475700348615646 0.01763099990785122
          -0.07667099684476852 0.10226300358772278 -0.014526000246405602 -0.08521000295877457 0.10614299774169922 -0.016478000208735466
          -0.08404800295829773 0.10343500226736069 -0.010363999754190445 -0.07291799783706665 0.10475700348615646 -0.01763099990785122
          -0.08184599876403809 0.0990459993481636 0.021870000287890434 -0.08194699883460999 0.10261599719524384 0.01894400082528591
          -0.09117399901151657 0.10384400188922882 0.01984499953687191 -0.08908800035715103 0.09473899751901627 0.014623000286519527
          -0.08527400344610214 0.09961800277233124 0.02191000059247017 -0.08712100237607956 0.07876300066709518 0.013020000420510769
          -0.082955002784729 0.08196800202131271 0.015938999131321907 -0.09513600170612335 0.09188400208950043 0.01756099984049797
          -0.08692900091409683 0.09278800338506699 0.01305800024420023 -0.07466699928045273 0.08235300332307816 0.012357000261545181
          -0.08545000106096268 0.07466699928045273 0.017556000500917435 -0.08160600066184998 0.09316399693489075 0.02710000053048134
          -0.08244699984788895 0.09032300114631653 0.024714000523090363 -0.0859059989452362 0.09724800288677216 0.02506200037896633
          -0.07837799936532974 0.0734269991517067 0.000003000000106112566 -0.07282800227403641 0.06654399633407593 0.006903000175952911
          -0.09402699768543243 0.07601200044155121 0.000003999999989900971 -0.08977100253105164 0.0848810002207756 0.005106000229716301
          -0.08556900173425674 0.08518200367689133 0.008549000136554241 -0.0854019969701767 0.09148599952459335 0.010714000090956688
          -0.08977100253105164 0.0848810002207756 -0.005106000229716301 -0.08556900173425674 0.08518200367689133 -0.008549000136554241
          -0.0854019969701767 0.09148599952459335 -0.010714000090956688 -0.08445800095796585 0.0963829979300499 0.011691000312566757
          -0.06391800194978714 0.10624799877405167 -0.023101000115275383 -0.08184599876403809 0.0990459993481636 -0.021870000287890434
          -0.08194699883460999 0.10261599719524384 -0.01894400082528591 -0.082955002784729 0.08196800202131271 -0.015938999131321907
          -0.08712100237607956 0.07876300066709518 -0.013020000420510769 -0.08908800035715103 0.09473899751901627 -0.014623000286519527
          -0.09513600170612335 0.09188400208950043 -0.01756099984049797 -0.08692900091409683 0.09278800338506699 -0.01305800024420023
          -0.09117399901151657 0.10384400188922882 -0.019843999296426773 -0.08527400344610214 0.09961800277233124 -0.02191000059247017
          -0.07466699928045273 0.08235300332307816 -0.012357000261545181 -0.08545000106096268 0.07466699928045273 -0.017556000500917435
          -0.08244699984788895 0.09032300114631653 -0.024714000523090363 -0.08160600066184998 0.09316399693489075 -0.02710000053048134
          -0.0859059989452362 0.09724800288677216 -0.02506200037896633 -0.07282800227403641 0.06654399633407593 -0.006903000175952911
          -0.08445800095796585 0.0963829979300499 -0.011691000312566757 -0.0956220030784607 0.09861599653959274 0.01663300022482872
          -0.08941099792718887 0.09858100116252899 0.01433899998664856 -0.0956220030784607 0.09861599653959274 -0.01663300022482872
          -0.08941099792718887 0.09858100116252899 -0.01433899998664856 -0.09331899881362915 0.09775400161743164 0.021988000720739365
          -0.09431000053882599 0.09476800262928009 0.017085999250411987 -0.08869300037622452 0.07500500231981277 0.01056899968534708
          -0.08844199776649475 0.06921800225973129 0.010001000016927719 -0.08204899728298187 0.06694100052118301 0.017305999994277954
          -0.08772300183773041 0.08093400299549103 0.009115000255405903 -0.07326900213956833 0.06381700187921524 0.013717999681830406
          -0.07656999677419662 0.06887699663639069 0.005489000119268894 -0.08089499920606613 0.07298699766397476 9.999999974752427e-7
          -0.07656999677419662 0.06887699663639069 -0.005489000119268894 -0.0932530015707016 0.07912900298833847 0.004311999771744013
          -0.09789100289344788 0.06756000220775604 -0.000015999999959603883 -0.09127599745988846 0.0746690034866333 0.004195000045001507
          -0.0932530015707016 0.07912900298833847 -0.004311999771744013 -0.09127599745988846 0.0746690034866333 -0.004195000045001507
          -0.08772300183773041 0.08093400299549103 -0.009115000255405903 -0.08844199776649475 0.06921800225973129 -0.010001000016927719
          -0.08869300037622452 0.07500500231981277 -0.01056899968534708 -0.08204899728298187 0.06694100052118301 -0.017305999994277954
          -0.09331899881362915 0.09775400161743164 -0.021988000720739365 -0.09431000053882599 0.09476800262928009 -0.017085999250411987
          -0.07326900213956833 0.06381700187921524 -0.013717999681830406 -0.09111300110816956 0.06911200284957886 0.004375999793410301
          -0.08929699659347534 0.06730200350284576 0.0051299999468028545 -0.08117400109767914 0.06790100038051605 0.007867000065743923
          -0.08521699905395508 0.062442000955343246 0 -0.08117400109767914 0.06790100038051605 -0.007867000065743923
          -0.08929699659347534 0.06730200350284576 -0.0051299999468028545 -0.10343500226736069 0.06145700067281723 -0.00002099999983329326
          -0.09111300110816956 0.06911200284957886 -0.004375999793410301 -0.09490299969911575 0.06400600075721741 0.0047610001638531685
          -0.09060599654912949 0.0628260001540184 0.004778999835252762 -0.09238799661397934 0.054788000881671906 0.003711000084877014
          -0.09410099685192108 0.05349300056695938 -0.000003000000106112566 -0.09238799661397934 0.054788000881671906 -0.003711000084877014
          -0.09060599654912949 0.0628260001540184 -0.004778999835252762 -0.1036750003695488 0.057402998208999634 0.004813999868929386
          -0.10409499704837799 0.055642999708652496 -0.00002300000051036477 -0.09490299969911575 0.06400600075721741 -0.0047610001638531685
          -0.1036750003695488 0.057402998208999634 -0.004813999868929386 -0.10047899931669235 0.05444199964404106 0.0056059998460114
          -0.09872700273990631 0.05291400104761124 -0.00002099999983329326 -0.10047899931669235 0.05444199964404106 -0.0056059998460114
          <InformationKey name="L2_NORM_RANGE" location="vtkDataArray" length="2">
            <Value index="0">
              0.095860238687
            </Value>
            <Value index="1">
              0.13960694406
            </Value>
          </InformationKey>
        </DataArray>
      </Points>
      <Verts>
        <DataArray type="Int64" Name="connectivity" format="ascii" RangeMin="1e+299" RangeMax="-1e+299">
        </DataArray>
        <DataArray type="Int64" Name="offsets" format="ascii" RangeMin="1e+299" RangeMax="-1e+299">
        </DataArray>
      </Verts>
      <Lines>
        <DataArray type="Int64" Name="connectivity" format="ascii" RangeMin="1e+299" RangeMax="-1e+299">
        </DataArray>
        <DataArray type="Int64" Name="offsets" format="ascii" RangeMin="1e+299" RangeMax="-1e+299">
        </DataArray>
      </Lines>
      <Strips>
        <DataArray type="Int64" Name="connectivity" format="ascii" RangeMin="1e+299" RangeMax="-1e+299">
        </DataArray>