<?xml version="1.0"?>
<VTKFile type="PolyData" version="0.1" byte_order="LittleEndian" header_type="UInt32" compressor="vtkZLibDataCompressor">
  <PolyData>
    <Piece NumberOfPoints="145" NumberOfVerts="0" NumberOfLines="0" NumberOfStrips="0" NumberOfPolys="286">
      <PointData Normals="Normals">
        <DataArray type="Float32" Name="Normals" NumberOfComponents="3" format="ascii" RangeMin="0.9999993197843629" RangeMax="1.0000005667302052">
          0.4044640064239502 0.8620970249176025 -0.3052830100059509 0.0992169976234436 0.9642429947853088 -0.24574799835681915
          0.026103999465703964 0.982554018497467 0.18413500487804413 0.6662570238113403 0.7277370095252991 -0.16279099881649017
          0.6559190154075623 0.4875650107860565 -0.5762389898300171 0.9286789894104004 0.26400500535964966 -0.2604919970035553
          -0.23819099366664886 0.9073879718780518 -0.3462829887866974 0.13220000267028809 0.5320559740066528 -0.8363249897956848
          0.45489999651908875 0.8418610095977783 0.2904059886932373 0.10136699676513672 0.9873960018157959 0.12155000120401382
          -0.013365999795496464 0.9967269897460938 -0.0797320008277893 -0.225600004196167 0.8330529928207397 0.5051010251045227
          -0.6546090245246887 0.6918359994888306 0.30471301078796387 -0.5710440278053284 0.7588170170783997 -0.31321901082992554
          0.9167600274085999 0.3069460093975067 0.2556059956550598 0.7004280090332031 0.17007799446582794 -0.6931629776954651
          0.935155987739563 0.3121510148048401 -0.16746899485588074 0.9575719833374023 0.24203500151634216 0.15644699335098267
          -0.4840810000896454 0.2468010038137436 -0.8394970297813416 0.07544899731874466 -0.06121399998664856 -0.9952690005302429
          0.496504008769989 0.7747640013694763 0.3914389908313751 -0.09323299676179886 0.9872499704360962 0.1290140002965927
          -0.8833280205726624 0.013806999661028385 0.46855199337005615 -0.4749949872493744 0.7069829702377319 0.5239800214767456
          -0.9188529849052429 -0.11319699883460999 -0.37801501154899597 0.7401109933853149 0.3386459946632385 0.5809950232505798
          0.47776898741722107 -0.1148580014705658 -0.8709449768066406 0.927486002445221 0.2331179976463318 -0.292277991771698
          0.9108359813690186 0.34574300050735474 0.22547699511051178 0.6805170178413391 0.30910998582839966 0.6643400192260742
          -0.47090598940849304 -0.3540239930152893 -0.8080310225486755 -0.13582299649715424 -0.45542800426483154 -0.8798509836196899
          0.07220199704170227 0.5325639843940735 0.8433049917221069 -0.668658971786499 0.15382899343967438 0.7274839878082275
          -0.4963949918746948 -0.8118590116500854 0.30737000703811646 -0.6473429799079895 -0.7238270044326782 -0.2387939989566803
          -0.048333000391721725 0.0913190022110939 0.9946479797363281 0.21909600496292114 -0.2617579996585846 -0.9399359822273254
          0.8907600045204163 -0.05973599851131439 -0.4505319893360138 0.933568000793457 -0.08172699809074402 0.34895798563957214
          0.4915730059146881 -0.2130730003118515 0.8443670272827148 0.05484899878501892 -0.1664150059223175 0.9845290184020996
          -0.4639520049095154 -0.6360380053520203 -0.6166070103645325 -0.26075300574302673 -0.36037299036979675 -0.8956220149993896
          -0.6697810292243958 -0.2532399892807007 0.6980429887771606 -0.7551400065422058 -0.5904070138931274 0.28492501378059387
          -0.6364740133285522 -0.7440119981765747 -0.20333899557590485 -0.758059024810791 -0.1504400074481964 0.6345980167388916
          0.10393600165843964 -0.09455700218677521 -0.9900789856910706 0.8519039750099182 -0.1311749964952469 -0.5070040225982666
          0.8673040270805359 -0.12813800573349 0.481003999710083 0.18929600715637207 -0.30903899669647217 0.9320200085639954
          0.15918399393558502 -0.5338220000267029 0.8304780125617981 -0.20595799386501312 -0.28267601132392883 0.9368429780006409
          -0.48934799432754517 -0.3003230094909668 -0.8187459707260132 -0.21842899918556213 -0.05773700028657913 -0.9741430282592773
          -0.9672189950942993 -0.21252800524234772 0.1389939934015274 -0.8919969797134399 -0.25272199511528015 -0.3747960031032562
          -0.9803590178489685 -0.051979999989271164 0.19024799764156342 0.17660099267959595 -0.055330000817775726 -0.982725977897644
          0.8704230189323425 -0.13082300126552582 -0.4746040105819702 0.830374002456665 -0.1498589962720871 0.5366759896278381
          0.11619500070810318 -0.1433500051498413 0.9828270077705383 0.02246900089085102 -0.20150700211524963 0.9792289733886719
          -0.9036080241203308 -0.05511799827218056 0.42480000853538513 -0.37366798520088196 -0.08395499736070633 0.9237549901008606
          -0.36299100518226624 -0.04099100083112717 -0.9308900237083435 -0.10538300126791 -0.009236999787390232 -0.994388997554779
          -0.8909779787063599 -0.028271999210119247 -0.4531649947166443 -0.9370710253715515 -0.02689100056886673 -0.3481009900569916
          0.336463987827301 -0.025675000622868538 -0.9413459897041321 0.9192289710044861 -0.0868000015616417 -0.38403698801994324
          0.8631529808044434 -0.09248100221157074 0.49640101194381714 0.20893000066280365 -0.05740499868988991 0.9762439727783203
          -0.08015900105237961 -0.04528399929404259 0.9957529902458191 -0.477977991104126 -0.01895200088620186 0.8781669735908508
          -0.9531239867210388 -0.05130099877715111 0.29819801449775696 -0.9739300012588501 0.004511999897658825 0.22680500149726868
          -0.32653799653053284 -0.010400000028312206 -0.945127010345459 -0.09513500332832336 0.020930999889969826 -0.995244026184082
          -0.5022559762001038 0.008921000175178051 -0.8646730184555054 -0.9705700278282166 -0.05126500129699707 -0.2352990061044693
          0.42334499955177307 0.057263001799583435 -0.9041569828987122 0.9448789954185486 -0.009980999864637852 -0.32726699113845825
          0.9184489846229553 -0.023243000730872154 0.3948569893836975 0.40730801224708557 -0.012505999766290188 0.9132050275802612
          0.027386000379920006 -0.002406999934464693 0.9996219873428345 -0.4640139937400818 0.014197000302374363 0.8857139945030212
          -0.9738479852676392 0.041836000978946686 0.22331400215625763 -0.8881880044937134 0.02884400077164173 -0.45857399702072144
          -0.9324560165405273 0.08239900320768356 -0.35176199674606323 -0.027501000091433525 0.18344099819660187 -0.9826459884643555
          -0.3340260088443756 0.17233699560165405 -0.926675021648407 0.535772979259491 0.1875620037317276 -0.8232669830322266
          0.9594159722328186 0.08154000341892242 -0.26994800567626953 0.9386069774627686 0.06310500204563141 0.3391689956188202
          0.5279790163040161 0.05283400043845177 0.8476120233535767 -0.022126000374555588 0.06521400064229965 0.997626006603241
          -0.6267420053482056 0.11407399922609329 0.7708320021629333 -0.9491720199584961 0.19918599724769592 0.24371500313282013
          -0.9517840147018433 0.17127199470996857 -0.25450700521469116 -0.5970960259437561 0.18699200451374054 -0.7800710201263428
          0.027029000222682953 0.2503809928894043 -0.967769980430603 0.6216700077056885 0.13608799874782562 -0.7713670134544373
          0.9199770092964172 0.29604199528694153 -0.25690600275993347 0.925121009349823 0.2850109934806824 0.2508389949798584
          0.6201320290565491 0.2488439977169037 0.7439839839935303 0.06416700035333633 0.19454599916934967 0.9787920117378235
          -0.5331659913063049 0.110725998878479 0.8387330174446106 -0.8988649845123291 0.25210699439048767 0.35844698548316956
          -0.9280070066452026 -0.093811996281147 -0.36055800318717957 -0.9354389905929565 -0.07805000245571136 0.34476399421691895
          -0.5313550233840942 -0.12488599866628647 -0.8378940224647522 0.08392799645662308 -0.08503799885511398 -0.9928370118141174
          0.5814189910888672 -0.6431769728660583 -0.49827098846435547 0.9354689717292786 -0.07012200355529785 -0.3463830053806305
          0.936735987663269 0.05087700113654137 0.3463209867477417 0.5815309882164001 0.06735499948263168 0.8107309937477112
          0.07707799971103668 -0.0008779999916441739 0.9970250129699707 -0.28321799635887146 -0.2867009937763214 0.9151999950408936
          -0.40783900022506714 -0.7759960293769836 0.4811420142650604 -0.40876901149749756 -0.9035720229148865 -0.12832100689411163
          -0.12484099715948105 -0.9883249998092651 -0.08734200149774551 0.10839399695396423 -0.9940130114555359 0.013751000165939331
          -0.14547699689865112 -0.962772011756897 0.2278279960155487 0.36245501041412354 -0.9257270097732544 -0.10796400159597397
          0.5885720252990723 -0.7748640179634094 0.23058399558067322 0.35936200618743896 -0.6061540246009827 0.7095329761505127
          -0.013000000268220901 -0.4903019964694977 0.8714560270309448 -0.18606700003147125 -0.6352840065956116 0.7495290040969849
          -0.09656800329685211 -0.9368119835853577 0.3362399935722351 0.059661999344825745 -0.9799190163612366 -0.19026200473308563
          0.3822669982910156 -0.9206579923629761 -0.07913099974393845 0.05184800177812576 -0.7811530232429504 0.6221830248832703
          -0.44127199053764343 -0.88926100730896 -0.12038999795913696 -0.22956199944019318 -0.9508839845657349 -0.20765599608421326
          -0.052202001214027405 -0.998420000076294 -0.020809000357985497 0.01597999967634678 -0.9945799708366394 0.10273800045251846
          0.0553940013051033 -0.9497439861297607 0.30808699131011963 0.12164299935102463 -0.9035689830780029 0.41081199049949646
          0.12168300151824951 -0.9500889778137207 0.2872700095176697 0.3015559911727905 -0.953419029712677 -0.007455000188201666
          0.4296480119228363 -0.8415480256080627 -0.32741299271583557 0.19646400213241577 -0.9774900078773499 -0.07690700143575668
          0.09284800291061401 -0.9780550003051758 -0.18651199340820312
          <InformationKey name="L2_NORM_RANGE" location="vtkDataArray" length="2">
            <Value index="0">
              0.99999931978
            </Value>
            <Value index="1">
              1.0000005667
            </Value>
          </InformationKey>
        </DataArray>
      </PointData>
      <CellData>
      </CellData>
      <Points>
        <DataArray type="Float32" Name="Points" NumberOfComponents="3" format="ascii" RangeMin="0.030312746171207827" RangeMax="0.4156758307647658">
          0.016459999606013298 -0.031254999339580536 -0.009682999923825264 0.006000000052154064 -0.028519999235868454 -0.008334999904036522
          0.006000000052154064 -0.031254999339580536 0.00318100000731647 0.02759299986064434 -0.03398999944329262 -0.0030879999976605177
          0.023854000493884087 -0.040316998958587646 -0.018776999786496162 0.030511999502778053 -0.04185499995946884 -0.0039369999431073666
          -0.007977000437676907 -0.0310830008238554 -0.014008999802172184 0.006000000052154064 -0.038777001202106476 -0.028074000030755997
          0.02759299986064434 -0.03398999944329262 0.009448999539017677 0.016008999198675156 -0.0346749983727932 0.01549100037664175
          0.006000000052154064 -0.03535899892449379 0.01332399994134903 -0.007524999789893627 -0.03450300171971321 0.019814999774098396
          -0.026972999796271324 -0.03364900127053261 0.012753999792039394 -0.026972999796271324 -0.03364900127053261 -0.006393000017851591
          0.030511999502778053 -0.04185499995946884 0.01029799971729517 0.024484999477863312 -0.05262700095772743 -0.019554000347852707
          0.030804000794887543 -0.0565590001642704 -0.004021000117063522 0.030804000794887543 -0.0565590001642704 0.010382000356912613
          -0.015821000561118126 -0.0466420017182827 -0.023656999692320824 0.006000000052154064 -0.04869399964809418 -0.029719000682234764
          0.019164999946951866 -0.03655499964952469 0.0193719994276762 0.006000000052154064 -0.031254999339580536 0.020177999511361122
          -0.0313510000705719 -0.054506998509168625 0.014024999924004078 -0.011132000014185905 -0.04288100078701973 0.024251999333500862
          -0.0313510000705719 -0.054506998509168625 -0.007664000149816275 0.02457600086927414 -0.045958999544382095 0.02602599933743477
          0.02493700012564659 -0.06835699826478958 -0.020107999444007874 0.038683000952005386 -0.06852900236845016 -0.006308000069111586
          0.038683000952005386 -0.06852900236845016 0.012668999843299389 0.02737100049853325 -0.06220199912786484 0.02946300059556961
          -0.015279999934136868 -0.05416499823331833 -0.022991999983787537 0.006000000052154064 -0.06818599998950958 -0.023686999455094337
          0.006000000052154064 -0.03535899892449379 0.036354001611471176 -0.01537100039422512 -0.04749700054526329 0.02946300059556961
          -0.02785000018775463 -0.05963600054383278 0.013008000329136848 -0.02785000018775463 -0.05963600054383278 -0.006647000089287758
          0.006000000052154064 -0.05587499961256981 0.037450000643730164 0.02268199995160103 -0.08066699653863907 -0.017335999757051468
          0.039000000804662704 -0.08220499753952026 -0.007240999955683947 0.039000000804662704 -0.08220499753952026 0.013602999970316887
          0.02863300032913685 -0.07057999819517136 0.03101699985563755 0.006000000052154064 -0.058952998369932175 0.03827299922704697
          -0.01104199979454279 -0.06544999778270721 -0.0177800003439188 0.006000000052154064 -0.07912900298833847 -0.013818000443279743
          -0.013477000407874584 -0.05929400026798248 0.02713399939239025 -0.02055400051176548 -0.06271500140428543 0.010889999568462372
          -0.02055400051176548 -0.06271500140428543 -0.004528000019490719 -0.011312000453472137 -0.06955400109291077 0.024473000317811966
          0.01961600035429001 -0.11725600063800812 -0.013565000146627426 0.03838900104165077 -0.10101400315761566 -0.00622399989515543
          0.03838900104165077 -0.10101400315761566 0.01258500013500452 0.024304000660777092 -0.08408699929714203 0.02569199912250042
          0.006000000052154064 -0.06715899705886841 0.02840300090610981 -0.0072559998370707035 -0.10101400315761566 0.019481999799609184
          -0.005361999850720167 -0.07964199781417847 -0.01079300045967102 0.006000000052154064 -0.13349899649620056 -0.007784999907016754
          -0.012675999663770199 -0.08015500009059906 0.008601999841630459 -0.012675999663770199 -0.08015500009059906 -0.002242000075057149
          -0.010049000382423401 -0.13486699759960175 0.007841000333428383 0.01709200069308281 -0.18616099655628204 -0.010459999553859234
          0.03226200118660927 -0.13726100325584412 -0.0044450000859797 0.03226200118660927 -0.13726100325584412 0.010805999860167503
          0.01979699917137623 -0.11041799932718277 0.02014799974858761 0.006000000052154064 -0.08357500284910202 0.020452000200748444
          -0.010049000382423401 -0.16974599659442902 0.007841000333428383 -0.004641000181436539 -0.12666000425815582 0.016266999766230583
          -0.0025659999810159206 -0.13418300449848175 -0.007354999892413616 0.006000000052154064 -0.23505899310112 -0.005865999963134527
          -0.010049000382423401 -0.13486699759960175 -0.0014799999771639705 -0.010049000382423401 -0.16974599659442902 -0.0014799999771639705
          0.014836999587714672 -0.2545500099658966 -0.007687999866902828 0.024091999977827072 -0.2046249955892563 -0.0020719999447464943
          0.024091999977827072 -0.2046249955892563 0.008433000184595585 0.015557999722659588 -0.16940400004386902 0.014934999868273735
          0.006000000052154064 -0.13418300449848175 0.015243000350892544 -0.0013940000208094716 -0.2022310048341751 0.012273999862372875
          -0.0075690001249313354 -0.2200150042772293 0.007120999973267317 -0.00508800009265542 -0.2702830135822296 0.006401000078767538
          -0.001934999949298799 -0.2024029940366745 -0.006577999796718359 0.006000000052154064 -0.3044759929180145 -0.006688999943435192
          -0.0006730000022798777 -0.2873769998550415 -0.005026999861001968 -0.0075690001249313354 -0.2200150042772293 -0.0007600000244565308
          0.014926999807357788 -0.32003599405288696 -0.007797999773174524 0.019423000514507294 -0.27199000120162964 -0.0007159999804571271
          0.019423000514507294 -0.27199000120162964 0.0070779998786747456 0.013753999955952168 -0.253356009721756 0.012718000449240208
          0.006000000052154064 -0.23471799492835999 0.014147000387310982 -0.0027469999622553587 -0.2865230143070221 0.013938000425696373
          -0.010631999932229519 -0.3383300006389618 0.00800899975001812 -0.00508800009265542 -0.2702830135822296 -0.000039999998989515007
          -0.010631999932229519 -0.3383300006389618 -0.0016479999758303165 0.006641000043600798 -0.3680039942264557 -0.010592999868094921
          -0.003918999806046486 -0.35320499539375305 -0.009019000455737114 0.018624000251293182 -0.36517301201820374 -0.012346000410616398
          0.021174000576138496 -0.3400390148162842 -0.0012250000145286322 0.021174000576138496 -0.3400390148162842 0.007586000021547079
          0.014565999619662762 -0.32071998715400696 0.013717000372707844 0.006000000052154064 -0.30139899253845215 0.01496999990195036
          -0.003197999903932214 -0.3369629979133606 0.014492000453174114 -0.011215999722480774 -0.37252599000930786 0.008178000338375568
          -0.011215999722480774 -0.37252599000930786 -0.001816999982111156 -0.0072559998370707035 -0.3814150094985962 -0.013120999559760094
          0.006000000052154064 -0.3903059959411621 -0.020944999530911446 0.020879000425338745 -0.39612099528312683 -0.015118000097572803
          0.025841999799013138 -0.38688600063323975 -0.002580000087618828 0.025841999799013138 -0.38688600063323975 0.00894199963659048
          0.017812000587582588 -0.3785090148448944 0.01770699955523014 0.006000000052154064 -0.3701309859752655 0.020452000200748444
          -0.008879000321030617 -0.3889380097389221 0.021477999165654182 -0.012391000054776669 -0.3771669864654541 0.013907000422477722
          -0.023763999342918396 -0.40774598717689514 -0.005458999890834093 -0.023763999342918396 -0.40774598717689514 0.011820999905467033
          -0.0119439996778965 -0.40654999017715454 -0.01888900063931942 0.006000000052154064 -0.40535199642181396 -0.023414000868797302
          0.020788000896573067 -0.40689098834991455 -0.015007000416517258 0.03197000175714493 -0.3985140025615692 -0.004360999912023544
          0.03197000175714493 -0.3985140025615692 0.010722000151872635 0.022050999104976654 -0.3928709924221039 0.022919999435544014
          0.006000000052154064 -0.38722899556159973 0.027580000460147858 -0.010320999659597874 -0.400052011013031 0.023252999410033226
          -0.02084599994122982 -0.4128760099411011 0.010974000208079815 -0.02084599994122982 -0.4128760099411011 -0.004614000208675861
          -0.009057999588549137 -0.41407299041748047 -0.01534000039100647 0.006000000052154064 -0.41526898741722107 -0.0173799991607666
          0.01826299913227558 -0.40501001477241516 -0.011901999823749065 0.028176000341773033 -0.40671899914741516 -0.003258999902755022
          0.028176000341773033 -0.40671899914741516 0.009619999676942825 0.01961600035429001 -0.40347200632095337 0.019927000626921654
          0.006000000052154064 -0.4002229869365692 0.02374199964106083 -0.005541999824345112 -0.40654999017715454 0.017376000061631203
          -0.009465999901294708 -0.4128760099411011 0.007670999970287085 -0.009465999901294708 -0.4128760099411011 -0.0013099999632686377
          -0.004189999774098396 -0.4080890119075775 -0.009352000430226326 0.006000000052154064 -0.40330201387405396 -0.013268999755382538
          0.013213999569416046 -0.40483900904655457 -0.005692000035196543 0.01650499925017357 -0.4091149866580963 0.00013099999341648072
          0.01650499925017357 -0.4091149866580963 0.00622999994084239 0.01357400044798851 -0.4091149866580963 0.012494999915361404
          0.006000000052154064 -0.4091149866580963 0.016339000314474106 -0.0028699999675154686 -0.41053900122642517 0.013503000140190125
          -0.006558000110089779 -0.412771999835968 0.010192999616265297 -0.006558000110089779 -0.412771999835968 0.0034169999416917562
          -0.0015739999944344163 -0.4103119969367981 -0.006134999915957451 0.006000000052154064 -0.4005649983882904 -0.008882000111043453
          0.006000000052154064 -0.403984010219574 0.00318100000731647
          <InformationKey name="L2_NORM_RANGE" location="vtkDataArray" length="2">
            <Value index="0">
              0.030312746171
            </Value>
            <Value index="1">
              0.41567583076
            </Value>
          </InformationKey>
        </DataArray>
      </Points>
      <Verts>
        <DataArray type="Int64" Name="connectivity" format="ascii" RangeMin="1e+299" RangeMax="-1e+299">
        </DataArray>
        <DataArray type="Int64" Name="offsets" format="ascii" RangeMin="1e+299" RangeMax="-1e+299">
        </DataArray>
      </Verts>
      <Lines>
        <DataArray type="Int64" Name="connectivity" format="ascii" RangeMin="1e+299" RangeMax="-1e+299">
        </DataArray>
        <DataArray type="Int64" Name="offsets" format="ascii" RangeMin="1e+299" RangeMax="-1e+299">
        </DataArray>
      </Lines>
      <Strips>
        <DataArray type="Int64" Name="connectivity" format="ascii" RangeMin="1e+299" RangeMax="-1e+299">
        </DataArray>
        <DataArray type="Int64" Name="offsets" format="ascii" RangeMin="1e+299" RangeMax="-1e+299">
        </DataArray>
      </Strips>
      <Polys>
        <DataArray type="Int32" Name="connectivity" format="ascii" RangeMin="0" RangeMax="144">
          0 1 2 3 0 2
          0 4 1 5 4 0
          3 5 0 1 6 2
          4 7 1 1 7 6
          8 3 2 9 8 2
          10 9 2 11 10 2
          12 11 2 13 12 2
          6 13 2 14 5 3
          8 14 3 4 15 7
          16 15 4 5 16 4
          17 16 5 14 17 5
          6 18 13 7 18 6
          15 19 7 7 19 18
          20 14 8 9 20 8
          21 20 9 10 21 9
          10 11 21 22 23 11
          12 22 11 11 23 21
          24 22 12 13 24 12
          18 24 13 25 17 14
          20 25 14 15 26 19
          27 26 15 16 27 15
          28 27 16 17 28 16
          29 28 17 25 29 17
          18 30 24 19 30 18
          26 31 19 19 31 30
          32 25 20 21 32 20
          33 32 21 23 33 21
          22 33 23 22 34 33
          35 34 22 24 35 22
          30 35 24 36 29 25
          32 36 25 26 37 31
          26 38 37 27 38 26
          27 39 38 28 39 27
          28 40 39 29 40 28
          41 40 29 36 41 29
          30 42 35 31 42 30
          37 43 31 31 43 42
          44 36 32 33 44 32
          45 44 33 34 45 33
          46 45 34 35 46 34
          42 46 35 47 41 36
          44 47 36 37 48 43
          37 49 48 38 49 37
          38 50 49 39 50 38
          39 51 50 40 51 39
          52 51 40 41 52 40
          53 52 41 47 53 41
          42 54 46 43 54 42
          48 55 43 43 55 54
          56 47 44 45 56 44
          57 56 45 46 57 45
          54 57 46 58 53 47
          56 58 47 48 59 55
          60 59 48 49 60 48
          61 60 49 50 61 49
          62 61 50 51 62 50
          63 62 51 52 63 51
          63 52 53 64 65 53
          58 64 53 65 63 53
          54 66 57 55 66 54
          59 67 55 55 67 66
          68 58 56 57 68 56
          66 68 57 69 64 58
          68 69 58 59 70 67
          71 70 59 60 71 59
          72 71 60 61 72 60
          73 72 61 62 73 61
          74 73 62 63 74 62
          75 74 63 65 75 63
          65 64 76 76 64 69
          77 75 65 65 76 77
          66 78 68 67 78 66
          70 79 67 67 79 78
          78 69 68 80 81 69
          78 80 69 81 76 69
          70 82 79 83 82 70
          71 83 70 84 83 71
          72 84 71 85 84 72
          73 85 72 86 85 73
          74 86 73 87 86 74
          75 87 74 88 87 75
          77 88 75 77 76 81
          89 77 81 90 88 77
          89 90 77 79 80 78
          82 91 79 79 91 80
          80 89 81 80 92 89
          91 92 80 82 93 91
          94 93 82 83 94 82
          95 94 83 84 95 83
          96 95 84 85 96 84
          97 96 85 86 97 85
          98 97 86 87 98 86
          99 98 87 88 99 87
          100 99 88 90 100 88
          92 90 89 101 100 90
          92 101 90 93 102 91
          91 102 92 102 101 92
          93 103 102 104 103 93
          94 104 93 105 104 94
          95 105 94 106 105 95
          96 106 95 107 106 96
          97 107 96 108 107 97
          98 108 97 109 98 99
          98 109 108 110 111 99
          100 110 99 109 99 111
          112 110 100 101 112 100
          102 113 101 113 112 101
          103 113 102 103 114 113
          115 114 103 104 115 103
          116 115 104 105 116 104
          117 116 105 106 117 105
          118 117 106 107 118 106
          119 118 107 108 119 107
          120 119 108 111 120 108
          109 111 108 110 121 111
          122 121 110 112 122 110
          121 120 111 113 123 112
          123 122 112 114 123 113
          114 124 123 125 124 114
          115 125 114 126 125 115
          116 126 115 127 126 116
          117 127 116 128 127 117
          118 128 117 129 128 118
          119 129 118 130 129 119
          120 130 119 131 130 120
          121 131 120 132 131 121
          122 132 121 123 133 122
          133 132 122 124 133 123
          124 134 133 135 134 124
          125 135 124 136 135 125
          126 136 125 137 136 126
          127 137 126 138 137 127
          128 138 127 139 138 128
          129 139 128 140 139 129
          130 140 129 141 140 130
          131 141 130 142 141 131
          132 142 131 133 143 132
          143 142 132 134 143 133
          134 144 143 135 144 134
          136 144 135 137 144 136
          138 144 137 139 144 138
          140 144 139 141 144 140
          142 144 141 143 144 142
        </DataArray>
        <DataArray type="Int32" Name="offsets" format="ascii" RangeMin="3" RangeMax="858">
          3 6 9 12 15 18
          21 24 27 30 33 36
          39 42 45 48 51 54
          57 60 63 66 69 72
          75 78 81 84 87 90
          93 96 99 102 105 108
          111 114 117 120 123 126
          129 132 135 138 141 144
          147 150 153 156 159 162
          165 168 171 174 177 180
          183 186 189 192 195 198
          201 204 207 210 213 216
          219 222 225 228 231 234
          237 240 243 246 249 252
          255 258 261 264 267 270
          273 276 279 282 285 288
          291 294 297 300 303 306
          309 312 315 318 321 324
          327 330 333 336 339 342
          345 348 351 354 357 360
          363 366 369 372 375 378
          381 384 387 390 393 396
          399 402 405 408 411 414
          417 420 423 426 429 432
          435 438 441 444 447 450
          453 456 459 462 465 468
          471 474 477 480 483 486
          489 492 495 498 501 504
          507 510 513 516 519 522
          525 528 531 534 537 540
          543 546 549 552 555 558
          561 564 567 570 573 576
          579 582 585 588 591 594
          597 600 603 606 609 612
          615 618 621 624 627 630
          633 636 639 642 645 648
          651 654 657 660 663 666
          669 672 675 678 681 684
          687 690 693 696 699 702
          705 708 711 714 717 720
          723 726 729 732 735 738
          741 744 747 750 753 756
          759 762 765 768 771 774
          777 780 783 786 789 792
          795 798 801 804 807 810
          813 816 819 822 825 828
          831 834 837 840 843 846
          849 852 855 858
        </DataArray>
      </Polys>
    </Piece>
  </PolyData>
</VTKFile>
