<?xml version="1.0"?>
<VTKFile type="PolyData" version="0.1" byte_order="LittleEndian" header_type="UInt32" compressor="vtkZLibDataCompressor">
  <PolyData>
    <Piece NumberOfPoints="142" NumberOfVerts="0" NumberOfLines="0" NumberOfStrips="0" NumberOfPolys="158">
      <PointData Normals="Normals">
        <DataArray type="Float32" Name="Normals" NumberOfComponents="3" format="ascii" RangeMin="0.9999992769573096" RangeMax="1.0000007037957042">
          0.026103999465703964 0.982554018497467 -0.18413500487804413 -0.014960000291466713 0.9790099859237671 0.2032639980316162
          0.04921500012278557 0.45288100838661194 0.8902119994163513 0.012574000284075737 -0.20769700407981873 0.978111982345581
          -0.15348100662231445 -0.5007050037384033 0.8519030213356018 -0.19288499653339386 -0.34488099813461304 0.9186149835586548
          -0.1502089947462082 -0.050627000629901886 0.9873570203781128 -0.18712100386619568 -0.009863999672234058 0.9822869896888733
          -0.1510459929704666 0.032579001039266586 0.9879900217056274 -0.17857800424098969 0.18110500276088715 0.9671149849891663
          -0.10896199941635132 0.25845998525619507 0.9598569869995117 0.11241500079631805 -0.15163999795913696 0.9820230007171631
          0.2772330045700073 -0.9469509720802307 0.16256000101566315 0.07744500041007996 -0.9150729775428772 -0.395781010389328
          0.06345999985933304 -0.9645829796791077 0.2560339868068695 0.23869900405406952 -0.9427080154418945 0.2330770045518875
          0.3659070134162903 0.9273049831390381 0.07884799689054489 0.6758379936218262 0.510886013507843 0.5312610268592834
          0.6288210153579712 -0.009171999990940094 0.7774959802627563 0.4173620045185089 -0.2488889992237091 0.8739929795265198
          0.21486100554466248 -0.27163198590278625 0.9381099939346313 0.10510700196027756 -0.08458100259304047 0.9908580183982849
          0.20708900690078735 -0.03240999951958656 0.9777849912643433 0.39066100120544434 0.009945999830961227 0.9204810261726379
          0.46291399002075195 0.17427299916744232 0.8691030144691467 0.5833719968795776 0.22002099454402924 0.7818359732627869
          0.6443870067596436 -0.06421899795532227 0.7619979977607727 0.31343498826026917 -0.9329969882965088 0.17684699594974518
          -0.46226298809051514 -0.8048059940338135 -0.3722890019416809 -0.5160290002822876 -0.8467220067977905 0.1295199990272522
          0.5215060114860535 0.8529549837112427 0.022332999855279922 0.9371410012245178 0.31370601058006287 0.15282799303531647
          0.9394770264625549 0.18535800278186798 0.28814199566841125 0.9376540184020996 0.15569500625133514 0.31074801087379456
          0.8907600045204163 -0.05973599851131439 0.4505319893360138 0.799144983291626 -0.1028589978814125 0.5922729969024658
          0.8943510055541992 -0.11049199849367142 0.4335060119628906 0.9408460259437561 -0.06369499862194061 0.3327940106391907
          0.9643309712409973 0.020173000171780586 0.263931006193161 0.9686650037765503 0.0894550010561943 0.23170100152492523
          0.9342849850654602 0.17660099267959595 0.3097139894962311 0.9066979885101318 -0.36964699625968933 0.20312799513339996
          0.09166499972343445 -0.9952579736709595 0.03254900127649307 -0.31376099586486816 -0.9328699707984924 0.17694100737571716
          0.5435649752616882 0.7959529757499695 -0.2664479911327362 0.9439210295677185 0.189192995429039 -0.27059099078178406
          0.9359490275382996 0.30537399649620056 -0.1753460019826889 0.9154070019721985 0.2981779873371124 -0.2704080045223236
          0.933568000793457 -0.08172699809074402 -0.34895798563957214 0.9207820296287537 -0.09317900240421295 -0.37878501415252686
          0.8281049728393555 -0.14327499270439148 -0.541953980922699 0.8618069887161255 -0.09447100013494492 -0.4983609914779663
          0.9115530252456665 -0.021316999569535255 -0.4106299877166748 0.9334070086479187 0.0652799978852272 -0.35283100605010986
          0.9129739999771118 0.3013949990272522 -0.27502501010894775 0.9479719996452332 0.03913100063800812 -0.31593799591064453
          0.5591210126876831 -0.8008549809455872 -0.21451100707054138 -0.11846999824047089 -0.9926149845123291 0.02607399970293045
          0.2728250026702881 0.8791679739952087 -0.3906790018081665 0.7230039834976196 0.532571017742157 -0.4400379955768585
          0.7395020127296448 0.407353013753891 -0.5359100103378296 0.646465003490448 0.33741500973701477 -0.6842759847640991
          0.5947099924087524 -0.06374800205230713 -0.8014090061187744 0.27229198813438416 -0.24364499747753143 -0.9308570027351379
          0.0798180028796196 -0.11027699708938599 -0.9906910061836243 0.22938700020313263 -0.06185799837112427 -0.9713680148124695
          0.4217660129070282 -0.012025999836623669 -0.906624972820282 0.5138189792633057 0.05718199908733368 -0.855991005897522
          0.5935850143432617 0.2843109965324402 -0.7528769969940186 0.5755829811096191 0.055560000240802765 -0.815854012966156
          0.35195401310920715 -0.7155069708824158 -0.6034709811210632 -0.04342300072312355 -0.9990559816360474 -0.0011569999624043703
          -0.03161400184035301 0.9909250140190125 -0.13064399361610413 -0.037094999104738235 0.9927679896354675 -0.11417300254106522
          0.004335000179708004 0.5966209769248962 -0.8025109767913818 -0.10151699930429459 0.20789699256420135 -0.972868025302887
          0.13723500072956085 -0.11077599972486496 -0.9843249917030334 0.3791089951992035 -0.3548150062561035 -0.8546239733695984
          0.22911299765110016 -0.16332800686359406 -0.9595999717712402 0.10514499992132187 -0.05155099928379059 -0.993120014667511
          0.05963100120425224 -0.002644000109285116 -0.998216986656189 0.08380500227212906 0.048183001577854156 -0.9953169822692871
          0.04141800105571747 0.24614199995994568 -0.9683480262756348 -0.0737989991903305 0.051353998482227325 -0.9959499835968018
          0.04954500123858452 -0.5591319799423218 -0.8275970220565796 0.23951800167560577 -0.95455402135849 -0.17736400663852692
          -0.28874099254608154 0.9355610013008118 -0.203358992934227 -0.6155030131340027 0.7722399830818176 -0.15748600661754608
          -0.7444390058517456 0.14475099742412567 -0.6518110036849976 -0.7706440091133118 -0.10534399747848511 -0.6284980177879333
          -0.5483559966087341 -0.268000990152359 -0.7921370267868042 0.2522299885749817 -0.3593190014362335 -0.8984820246696472
          0.19913899898529053 -0.16306300461292267 -0.9663090109825134 -0.14257100224494934 -0.039058998227119446 -0.9890140295028687
          -0.3789210021495819 0.010928000323474407 -0.9253649711608887 -0.38912099599838257 0.07327999919652939 -0.918267011642456
          -0.542605996131897 0.2084670066833496 -0.8137080073356628 -0.5612090229988098 -0.1402679979801178 -0.8157010078430176
          -0.2370389997959137 -0.5804169774055481 -0.7790570259094238 0.3813230097293854 -0.8313360214233398 -0.4043180048465729
          -0.5082209706306458 0.8316370248794556 -0.22381100058555603 -0.9076470136642456 0.13304999470710754 -0.3980880081653595
          -0.7290890216827393 -0.5450599789619446 -0.4139310121536255 -0.8475229740142822 -0.4968549907207489 -0.18665499985218048
          -0.9320949912071228 -0.24660100042819977 -0.2653059959411621 -0.8618199825286865 -0.11632800102233887 -0.4936949908733368
          -0.8080430030822754 -0.08073800057172775 -0.5835660099983215 -0.876999020576477 -0.0019079999765381217 -0.48048898577690125
          -0.915677011013031 0.03759799897670746 -0.4001519978046417 -0.9025189876556396 0.14790500700473785 -0.4044550061225891
          -0.9362760186195374 0.05693800002336502 -0.34662100672721863 -0.6470450162887573 -0.6696529984474182 -0.36454999446868896
          -0.4494929909706116 -0.8072149753570557 -0.3825710117816925 0.14686700701713562 -0.9372349977493286 -0.3162600100040436
          -0.6125230193138123 0.7708569765090942 0.17491599917411804 -0.9100450277328491 -0.19837899506092072 0.3639560043811798
          -0.5837230086326599 -0.7899559736251831 0.18771600723266602 -0.6525390148162842 -0.7335960268974304 0.1898140013217926
          -0.8885279893875122 -0.24641600251197815 0.387035995721817 -0.8870869874954224 -0.024942999705672264 0.4609279930591583
          -0.9216009974479675 -0.026930000633001328 0.38720300793647766 -0.9358630180358887 0.014696000143885612 0.352059006690979
          -0.9558659791946411 0.04983599856495857 0.28954699635505676 -0.950639009475708 0.18235300481319427 0.2510649859905243
          -0.9270449876785278 -0.08694600313901901 0.36472898721694946 -0.4095210134983063 -0.8530250191688538 0.3234820067882538
          -0.3618699908256531 -0.8410580158233643 0.40208300948143005 0.14191700518131256 -0.8498430252075195 0.5075690150260925
          -0.4500409960746765 0.8372020125389099 0.31073498725891113 -0.5602989792823792 0.053001999855041504 0.8265929818153381
          -0.44428399205207825 -0.5758540034294128 0.6862980127334595 -0.4418799877166748 -0.6331139802932739 0.6355379819869995
          -0.4158329963684082 -0.26646900177001953 0.8695269823074341 -0.30115100741386414 -0.030609000474214554 0.9530850052833557
          -0.4307500123977661 -0.021866999566555023 0.9022070169448853 -0.5066450238227844 0.017867999151349068 0.861968994140625
          -0.5820239782333374 0.09083499759435654 0.8080819845199585 -0.6273429989814758 0.21002599596977234 0.7498859763145447
          -0.49716100096702576 -0.09802500158548355 0.8621029853820801 -0.04669300094246864 -0.8532930016517639 0.519336998462677
          0.21300500631332397 -0.8208230137825012 0.5299800038337708 0.479420006275177 -0.6187499761581421 0.6223379969596863
          <InformationKey name="L2_NORM_RANGE" location="vtkDataArray" length="2">
            <Value index="0">
              0.99999927696
            </Value>
            <Value index="1">
              1.0000007038
            </Value>
          </InformationKey>
        </DataArray>
      </PointData>
      <CellData>
      </CellData>
      <Points>
        <DataArray type="Float32" Name="Points" NumberOfComponents="3" format="ascii" RangeMin="0.030312746171207827" RangeMax="0.42014563457943455">
          0.006000000052154064 -0.031254999339580536 -0.00318100000731647 0.006000000052154064 -0.028519999235868454 0.008334999904036522
          0.006000000052154064 -0.038777001202106476 0.028074000030755997 0.006000000052154064 -0.04869399964809418 0.029719000682234764
          0.006000000052154064 -0.06818599998950958 0.023686999455094337 0.006000000052154064 -0.07912900298833847 0.013818000443279743
          0.006000000052154064 -0.13349899649620056 0.007784999907016754 0.006000000052154064 -0.23505899310112 0.005865999963134527
          0.006000000052154064 -0.3044759929180145 0.006688999943435192 0.006000000052154064 -0.3680810034275055 0.011350000277161598
          0.006000000052154064 -0.3903059959411621 0.020944999530911446 0.006000000052154064 -0.40535199642181396 0.023414000868797302
          0.006000000052154064 -0.41526898741722107 0.0173799991607666 0.006000000052154064 -0.40330201387405396 0.013268999755382538
          0.006000000052154064 -0.4005649983882904 0.008882000111043453 0.006000000052154064 -0.403984010219574 -0.00318100000731647
          0.016459999606013298 -0.031254999339580536 0.009682999923825264 0.023854000493884087 -0.040316998958587646 0.018776999786496162
          0.024484999477863312 -0.05262700095772743 0.019554000347852707 0.02493700012564659 -0.06835699826478958 0.020107999444007874
          0.02268199995160103 -0.08066699653863907 0.017335999757051468 0.01961600035429001 -0.11725600063800812 0.013565000146627426
          0.01709200069308281 -0.18616099655628204 0.010459999553859234 0.014836999587714672 -0.2545500099658966 0.007687999866902828
          0.014926999807357788 -0.32003599405288696 0.007797999773174524 0.018624000251293182 -0.36517301201820374 0.012346000410616398
          0.020879000425338745 -0.39612099528312683 0.015118000097572803 0.020788000896573067 -0.40689098834991455 0.015007000416517258
          0.01826299913227558 -0.40501001477241516 0.011901999823749065 0.013213999569416046 -0.40483900904655457 0.005692000035196543
          0.02759299986064434 -0.03398999944329262 0.0030879999976605177 0.030511999502778053 -0.04185499995946884 0.0039369999431073666
          0.030804000794887543 -0.0565590001642704 0.004021000117063522 0.038683000952005386 -0.06852900236845016 0.006308000069111586
          0.039000000804662704 -0.08220499753952026 0.007240999955683947 0.03838900104165077 -0.10101400315761566 0.00622399989515543
          0.03226200118660927 -0.13726100325584412 0.0044450000859797 0.024091999977827072 -0.2046249955892563 0.0020719999447464943
          0.019423000514507294 -0.27199000120162964 0.0007159999804571271 0.021174000576138496 -0.3400390148162842 0.0012250000145286322
          0.025841999799013138 -0.38688600063323975 0.002580000087618828 0.03197000175714493 -0.3985140025615692 0.004360999912023544
          0.028176000341773033 -0.40671899914741516 0.003258999902755022 0.01650499925017357 -0.4091149866580963 -0.00013099999341648072
          0.02759299986064434 -0.03398999944329262 -0.009448999539017677 0.030511999502778053 -0.04185499995946884 -0.01029799971729517
          0.030804000794887543 -0.0565590001642704 -0.010382000356912613 0.038683000952005386 -0.06852900236845016 -0.012668999843299389
          0.039000000804662704 -0.08220499753952026 -0.013602999970316887 0.03838900104165077 -0.10101400315761566 -0.01258500013500452
          0.03226200118660927 -0.13726100325584412 -0.010805999860167503 0.024091999977827072 -0.2046249955892563 -0.008433000184595585
          0.019423000514507294 -0.27199000120162964 -0.0070779998786747456 0.021174000576138496 -0.3400390148162842 -0.007586000021547079
          0.025841999799013138 -0.38688600063323975 -0.00894199963659048 0.03197000175714493 -0.3985140025615692 -0.010722000151872635
          0.028176000341773033 -0.40671899914741516 -0.009619999676942825 0.01650499925017357 -0.4091149866580963 -0.00622999994084239
          0.016008999198675156 -0.0346749983727932 -0.01549100037664175 0.019164999946951866 -0.03655499964952469 -0.0193719994276762
          0.02457600086927414 -0.045958999544382095 -0.02602599933743477 0.02737100049853325 -0.06220199912786484 -0.02946300059556961
          0.02863300032913685 -0.07057999819517136 -0.03101699985563755 0.024304000660777092 -0.08408699929714203 -0.02569199912250042
          0.01979699917137623 -0.11041799932718277 -0.02014799974858761 0.015557999722659588 -0.16940400004386902 -0.014934999868273735
          0.013753999955952168 -0.253356009721756 -0.012718000449240208 0.014565999619662762 -0.32071998715400696 -0.013717000372707844
          0.017812000587582588 -0.3785090148448944 -0.01770699955523014 0.022050999104976654 -0.3928709924221039 -0.022919999435544014
          0.01961600035429001 -0.40347200632095337 -0.019927000626921654 0.01357400044798851 -0.4091149866580963 -0.012494999915361404
          0.006000000052154064 -0.03535899892449379 -0.01332399994134903 0.006000000052154064 -0.031254999339580536 -0.020177999511361122
          0.006000000052154064 -0.03535899892449379 -0.036354001611471176 0.006000000052154064 -0.05587499961256981 -0.037450000643730164
          0.006000000052154064 -0.058952998369932175 -0.03827299922704697 0.006000000052154064 -0.06715899705886841 -0.02840300090610981
          0.006000000052154064 -0.08357500284910202 -0.020452000200748444 0.006000000052154064 -0.13418300449848175 -0.015243000350892544
          0.006000000052154064 -0.23471799492835999 -0.014147000387310982 0.006000000052154064 -0.30139899253845215 -0.01496999990195036
          0.006000000052154064 -0.3701309859752655 -0.020452000200748444 0.006000000052154064 -0.38722899556159973 -0.027580000460147858
          0.006000000052154064 -0.4002229869365692 -0.02374199964106083 0.006000000052154064 -0.4091149866580963 -0.016339000314474106
          -0.007524999789893627 -0.03450300171971321 -0.019814999774098396 -0.011132000014185905 -0.04288100078701973 -0.024251999333500862
          -0.01537100039422512 -0.04749700054526329 -0.02946300059556961 -0.013477000407874584 -0.05929400026798248 -0.02713399939239025
          -0.011312000453472137 -0.06955400109291077 -0.024473000317811966 -0.0072559998370707035 -0.10101400315761566 -0.019481999799609184
          -0.004641000181436539 -0.12666000425815582 -0.016266999766230583 -0.0013940000208094716 -0.2022310048341751 -0.012273999862372875
          -0.0027469999622553587 -0.2865230143070221 -0.013938000425696373 -0.003197999903932214 -0.3369629979133606 -0.014492000453174114
          -0.008879000321030617 -0.3889380097389221 -0.021477999165654182 -0.010320999659597874 -0.400052011013031 -0.023252999410033226
          -0.005541999824345112 -0.40654999017715454 -0.017376000061631203 -0.001934999949298799 -0.4145849943161011 -0.012938999570906162
          -0.026972999796271324 -0.03364900127053261 -0.012753999792039394 -0.0313510000705719 -0.054506998509168625 -0.014024999924004078
          -0.02785000018775463 -0.05963600054383278 -0.013008000329136848 -0.02055400051176548 -0.06271500140428543 -0.010889999568462372
          -0.012675999663770199 -0.08015500009059906 -0.008601999841630459 -0.010049000382423401 -0.13486699759960175 -0.007841000333428383
          -0.010049000382423401 -0.16974599659442902 -0.007841000333428383 -0.00508800009265542 -0.2702830135822296 -0.006401000078767538
          -0.010631999932229519 -0.3383300006389618 -0.00800899975001812 -0.011215999722480774 -0.37252599000930786 -0.008178000338375568
          -0.023763999342918396 -0.40774598717689514 -0.011820999905467033 -0.02084599994122982 -0.4128760099411011 -0.010974000208079815
          -0.009465999901294708 -0.4128760099411011 -0.007670999970287085 -0.005671999882906675 -0.42005598545074463 -0.006568999961018562
          -0.026972999796271324 -0.03364900127053261 0.006393000017851591 -0.0313510000705719 -0.054506998509168625 0.007664000149816275
          -0.02785000018775463 -0.05963600054383278 0.006647000089287758 -0.02055400051176548 -0.06271500140428543 0.004528000019490719
          -0.012675999663770199 -0.08015500009059906 0.002242000075057149 -0.010049000382423401 -0.13486699759960175 0.0014799999771639705
          -0.010049000382423401 -0.16974599659442902 0.0014799999771639705 -0.00508800009265542 -0.2702830135822296 0.000039999998989515007
          -0.010631999932229519 -0.3383300006389618 0.0016479999758303165 -0.011215999722480774 -0.37252599000930786 0.001816999982111156
          -0.023763999342918396 -0.40774598717689514 0.005458999890834093 -0.02084599994122982 -0.4128760099411011 0.004614000208675861
          -0.009465999901294708 -0.4128760099411011 0.0013099999632686377 -0.005671999882906675 -0.42005598545074463 0.00020700000459328294
          -0.007977000437676907 -0.0310830008238554 0.014008999802172184 -0.015821000561118126 -0.0466420017182827 0.023656999692320824
          -0.015279999934136868 -0.05416499823331833 0.022991999983787537 -0.01104199979454279 -0.06544999778270721 0.0177800003439188
          -0.005361999850720167 -0.07964199781417847 0.01079300045967102 -0.0025659999810159206 -0.13418300449848175 0.007354999892413616
          -0.001934999949298799 -0.2024029940366745 0.006577999796718359 -0.0006730000022798777 -0.2873769998550415 0.005026999861001968
          -0.003918999806046486 -0.35320499539375305 0.009019000455737114 -0.0072559998370707035 -0.3814150094985962 0.013120999559760094
          -0.0119439996778965 -0.40654999017715454 0.01888900063931942 -0.009057999588549137 -0.41407299041748047 0.01534000039100647
          -0.004189999774098396 -0.4080890119075775 0.009352000430226326 -0.0015739999944344163 -0.4103119969367981 0.006134999915957451
          <InformationKey name="L2_NORM_RANGE" location="vtkDataArray" length="2">
            <Value index="0">
              0.030312746171
            </Value>
            <Value index="1">
              0.42014563458
            </Value>
          </InformationKey>
        </DataArray>
      </Points>
      <Verts>
        <DataArray type="Int64" Name="connectivity" format="ascii" RangeMin="1e+299" RangeMax="-1e+299">
        </DataArray>
        <DataArray type="Int64" Name="offsets" format="ascii" RangeMin="1e+299" RangeMax="-1e+299">
        </DataArray>
      </Verts>
      <Lines>
        <DataArray type="Int64" Name="connectivity" format="ascii" RangeMin="1e+299" RangeMax="-1e+299">
        </DataArray>
        <DataArray type="Int64" Name="offsets" format="ascii" RangeMin="1e+299" RangeMax="-1e+299">
        </DataArray>
      </Lines>
      <Strips>
        <DataArray type="Int64" Name="connectivity" format="ascii" RangeMin="1e+299" RangeMax="-1e+299">
        </DataArray>
        <DataArray type="Int64" Name="offsets" format="ascii" RangeMin="1e+299" RangeMax="-1e+299">
        </DataArray>
      </Strips>
      <Polys>
        <DataArray type="Int32" Name="connectivity" format="ascii" RangeMin="0" RangeMax="141">
          0 1 16 1 2 17
          16 2 3 18 17 3
          4 19 18 4 5 20
          19 5 6 21 20 6
          7 22 21 7 8 23
          22 8 9 24 23 9
          10 25 24 10 11 26
          25 11 12 27 26 12
          13 28 27 13 14 29
          28 14 15 29 0 16
          30 16 17 31 30 17
          18 32 31 18 19 33
          32 20 34 19 19 34
          33 21 35 20 20 35
          34 21 22 36 35 22
          23 37 36 23 24 38
          37 24 25 39 38 25
          26 40 39 26 27 41
          40 27 28 42 41 28
          29 43 42 29 15 43
          0 30 44 30 31 45
          44 31 32 46 45 32
          33 47 46 34 48 33
          33 48 47 35 49 34
          34 49 48 35 36 50
          49 36 37 51 50 37
          38 52 51 38 39 53
          52 39 40 54 53 40
          41 55 54 41 42 56
          55 42 43 57 56 43
          15 57 0 44 58 44
          45 59 58 45 46 60
          59 46 47 61 60 48
          62 47 47 62 61 49
          63 48 48 63 62 49
          50 64 63 50 51 65
          64 51 52 66 65 52
          53 67 66 53 54 68
          67 54 55 69 68 55
          56 70 69 56 57 71
          70 57 15 71 0 58
          72 58 59 73 72 59
          60 74 73 60 61 75
          74 61 62 76 75 62
          63 77 76 63 64 78
          77 64 65 79 78 65
          66 80 79 66 67 81
          80 67 68 82 81 68
          69 83 82 69 70 84
          83 70 71 85 84 71
          15 85 0 72 86 72
          73 87 86 73 74 88
          87 74 75 89 88 75
          76 90 89 76 77 91
          90 77 78 92 91 78
          79 93 92 79 80 94
          93 80 81 95 94 81
          82 96 95 82 83 97
          96 83 84 98 97 84
          85 99 98 85 15 99
          0 86 100 86 87 101
          100 88 102 101 87 88
          101 88 89 103 102 89
          90 104 103 90 91 105
          104 91 92 106 105 92
          93 107 106 93 94 108
          107 94 95 109 108 95
          96 110 109 96 97 111
          110 97 98 112 111 98
          99 113 112 99 15 113
          0 100 114 100 101 115
          114 101 102 116 115 102
          103 117 116 103 104 118
          117 104 105 119 118 105
          106 120 119 106 107 121
          120 107 108 122 121 108
          109 123 122 109 110 124
          123 110 111 125 124 111
          112 126 125 112 113 127
          126 113 15 127 0 114
          128 114 115 129 128 115
          116 130 129 116 117 131
          130 117 118 132 131 118
          119 133 132 119 120 134
          133 120 121 135 134 121
          122 136 135 122 123 137
          136 123 124 138 137 124
          125 139 138 125 126 140
          139 126 127 141 140 127
          15 141 0 128 1 128
          129 2 1 129 130 3
          2 130 131 4 3 131
          132 5 4 132 133 6
          5 133 134 7 6 134
          135 8 7 135 136 9
          8 136 137 10 9 137
          138 11 10 138 139 12
          11 139 140 13 12 140
          141 14 13 141 15 14
          88 89 102
        </DataArray>
        <DataArray type="Int32" Name="offsets" format="ascii" RangeMin="3" RangeMax="597">
          3 7 11 15 19 23
          27 31 35 39 43 47
          51 55 58 61 65 69
          73 76 79 82 85 89
          93 97 101 105 109 113
          117 120 123 127 131 135
          138 141 144 147 151 155
          159 163 167 171 175 179
          182 185 189 193 197 200
          203 206 209 213 217 221
          225 229 233 237 241 244
          247 251 255 259 263 267
          271 275 279 283 287 291
          295 299 302 305 309 313
          317 321 325 329 333 337
          341 345 349 353 357 360
          363 367 370 373 377 381
          385 389 393 397 401 405
          409 413 417 420 423 427
          431 435 439 443 447 451
          455 459 463 467 471 475
          478 481 485 489 493 497
          501 505 509 513 517 521
          525 529 533 536 539 543
          547 551 555 559 563 567
          571 575 579 583 587 591
          594 597
        </DataArray>
      </Polys>
    </Piece>
  </PolyData>
</VTKFile>
