<?xml version="1.0"?>
<VTKFile type="PolyData" version="0.1" byte_order="LittleEndian" header_type="UInt32" compressor="vtkZLibDataCompressor">
  <PolyData>
    <Piece NumberOfPoints="105" NumberOfVerts="0" NumberOfLines="0" NumberOfStrips="0" NumberOfPolys="206">
      <PointData Normals="Normals">
        <DataArray type="Float32" Name="Normals" NumberOfComponents="3" format="ascii" RangeMin="0.9999992759863002" RangeMax="1.0000006346313837">
          -0.5027490258216858 -0.4046199917793274 -0.7638890147209167 -0.8487460017204285 -0.28174400329589844 -0.44749200344085693
          -0.6561890244483948 -0.003992999903857708 -0.7545859813690186 -0.3713130056858063 -0.2798730134963989 -0.8853240013122559
          -0.6106529831886292 -0.7897989749908447 0.057624999433755875 -0.36606401205062866 -0.9213129878044128 0.131071999669075
          0.25900998711586 -0.4513710141181946 -0.8539190292358398 0.014139000326395035 -0.5321000218391418 -0.8465629816055298
          -0.8907439708709717 0.1520559936761856 -0.42831599712371826 -0.9912610054016113 -0.12686200439929962 -0.0361500009894371
          -0.6719670295715332 0.028558999300003052 -0.7400299906730652 -0.495294988155365 -0.4458500146865845 -0.7455869913101196
          -0.09086000174283981 -0.590632975101471 -0.8018090128898621 -0.7099660038948059 -0.27050700783729553 0.6502100229263306
          0.08247800171375275 -0.5005429983139038 0.8617740273475647 0.025258999317884445 -0.9719600081443787 -0.23378700017929077
          0.4547570049762726 -0.8904709815979004 0.016076000407338142 0.18454299867153168 -0.7329660058021545 -0.6547560095787048
          0.3836509883403778 -0.7866209745407104 -0.4837769865989685 0.48695799708366394 -0.5415149927139282 -0.6852989792823792
          0.7262380123138428 -0.633122980594635 -0.2678320109844208 0.4692850112915039 -0.8821280002593994 -0.0402659997344017
          -0.8639540076255798 0.2790589928627014 -0.41917699575424194 -0.912788987159729 0.4029090106487274 0.06694400310516357
          -0.8026859760284424 -0.1295890063047409 -0.5821530222892761 -0.6382730007171631 -0.6488929986953735 -0.4141800105571747
          -0.11486899852752686 -0.8202800154685974 -0.5603079795837402 -0.5920199751853943 0.3945769965648651 0.7027239799499512
          -0.36871299147605896 0.13571399450302124 0.9195830225944519 0.1312119960784912 -0.24781499803066254 0.9598810076713562
          0.1557299941778183 -0.30106401443481445 0.9408019781112671 0.37088799476623535 -0.6312400102615356 0.6811599731445312
          0.17039300501346588 -0.7963320016860962 -0.5803639888763428 0.8689829707145691 -0.49420300126075745 -0.025131000205874443
          0.5543439984321594 -0.7728899717330933 -0.3087790012359619 0.7380970120429993 -0.6569079756736755 0.15390199422836304
          0.3590649962425232 -0.7815009951591492 -0.5102239847183228 0.5720409750938416 -0.2836650013923645 0.7696120142936707
          -0.9456689953804016 0.2029300034046173 -0.25402799248695374 -0.9181830286979675 0.38764700293540955 0.08166799694299698
          -0.8871229887008667 0.40103399753570557 0.22843900322914124 -0.9591580033302307 -0.276652991771698 -0.05898300185799599
          -0.9250069856643677 -0.22618399560451508 -0.30529001355171204 -0.1528249979019165 -0.8629850149154663 -0.48156100511550903
          -0.5627470016479492 -0.6280959844589233 -0.5374119877815247 -0.7372699975967407 0.41631001234054565 0.5320889949798584
          -0.14946499466896057 0.4958080053329468 0.8554739952087402 0.0007869999972172081 -0.2403150051832199 0.9706950187683105
          0.5881479978561401 -0.4843049943447113 0.647711992263794 0.7994719743728638 -0.38921499252319336 0.45755401253700256
          -0.14502599835395813 -0.29736199975013733 -0.9436860084533691 0.5303069949150085 -0.3858030140399933 -0.754938006401062
          0.2940329909324646 0.22886699438095093 -0.9279900193214417 0.8632050156593323 -0.32854899764060974 0.3833180069923401
          0.7440990209579468 -0.6402660012245178 -0.19072699546813965 0.7522590160369873 -0.29201099276542664 0.5906239748001099
          0.7164319753646851 -0.3948749899864197 -0.5751510262489319 -0.9881790280342102 0.054903000593185425 0.14313699305057526
          -0.9227480292320251 0.31898900866508484 0.21629300713539124 -0.9824870228767395 0.18019099533557892 0.04744099825620651
          -0.828590989112854 0.5555559992790222 -0.06923700124025345 -0.9761080145835876 0.04253600165247917 0.2130800038576126
          -0.532535970211029 0.21605899930000305 -0.8183659911155701 -0.8226180076599121 0.43404099345207214 -0.36730000376701355
          -0.7437270283699036 0.5291339755058289 0.408517986536026 -0.10173100233078003 0.7777159810066223 0.6203290224075317
          -0.046286001801490784 0.29162299633026123 0.9554129838943481 -0.05649900063872337 0.7812449932098389 0.6216620206832886
          0.6763659715652466 0.10008300095796585 0.7297340035438538 0.9664829969406128 -0.19864700734615326 0.1626340001821518
          0.9261950254440308 -0.34391599893569946 0.15454599261283875 -0.024872999638319016 0.5635010004043579 -0.8257409930229187
          0.5761579871177673 0.27421998977661133 -0.7699649930000305 0.10797800123691559 0.5240899920463562 -0.844789981842041
          0.8744739890098572 0.03036700002849102 0.4841209948062897 0.9659320116043091 -0.14942799508571625 -0.2112949937582016
          -0.8972820043563843 0.28557199239730835 0.336650013923645 -0.7011020183563232 0.7125530242919922 -0.02690899930894375
          -0.5436279773712158 0.8127229809761047 0.2096409946680069 -0.4770579934120178 0.8466050028800964 -0.23595699667930603
          -0.4577530026435852 0.849128007888794 -0.2635200023651123 -0.4573020040988922 0.6033290028572083 -0.6533520221710205
          -0.07845400273799896 0.6033400297164917 -0.793615996837616 -0.2438410073518753 0.8848810195922852 0.39689600467681885
          -0.12865899503231049 0.8771200180053711 0.4627160131931305 0.4729999899864197 0.7176139950752258 0.5111759901046753
          0.6386449933052063 0.6150609850883484 0.4624199867248535 0.9866539835929871 0.08581899851560593 0.13837899267673492
          0.2471040040254593 0.33121201395988464 -0.9106249809265137 0.17473800480365753 0.4837389886379242 -0.857591986656189
          -0.028342999517917633 0.738099992275238 -0.6740959882736206 0.04198699817061424 0.6580780148506165 -0.7517780065536499
          0.7931069731712341 0.42699700593948364 0.43434399366378784 0.8924679756164551 0.31255799531936646 0.3252820074558258
          0.7349730134010315 0.1766040027141571 -0.6546949744224548 -0.2540389895439148 0.8898820281028748 -0.37891098856925964
          -0.4543299973011017 0.876865029335022 -0.15713399648666382 -0.3249410092830658 0.8475220203399658 -0.41966700553894043
          -0.38789400458335876 0.9192870259284973 0.06669999659061432 -0.0516900010406971 0.9843840003013611 -0.16827300190925598
          0.3550960123538971 0.8566830158233643 0.3741680085659027 -0.048395998775959015 0.7396450042724609 -0.6712549924850464
          -0.2957629859447479 0.6987339854240417 -0.6513789892196655 0.0769060030579567 0.7020649909973145 -0.7079480290412903
          0.6171960234642029 0.7828829884529114 -0.07850699871778488
          <InformationKey name="L2_NORM_RANGE" location="vtkDataArray" length="2">
            <Value index="0">
              0.99999927599
            </Value>
            <Value index="1">
              1.0000006346
            </Value>
          </InformationKey>
        </DataArray>
      </PointData>
      <CellData>
      </CellData>
      <Points>
        <DataArray type="Float32" Name="Points" NumberOfComponents="3" format="ascii" RangeMin="0.025157706718207377" RangeMax="0.0417920227113084">
          -0.013377999886870384 -0.030131999403238297 -0.023298999294638634 -0.014759000390768051 -0.029577000066637993 -0.02195500023663044
          -0.013477999716997147 -0.028481999412178993 -0.02354400046169758 -0.010990000329911709 -0.026771999895572662 -0.025111999362707138
          -0.014058000408113003 -0.031390998512506485 -0.020387999713420868 -0.010898999869823456 -0.033452000468969345 -0.022304000332951546
          -0.009158999659121037 -0.029500000178813934 -0.023953000083565712 -0.010058999992907047 -0.032760001718997955 -0.023660000413656235
          -0.014960000291466713 -0.027567999437451363 -0.02181600034236908 -0.015344999730587006 -0.029030000790953636 -0.01978299953043461
          -0.012625000439584255 -0.02665800042450428 -0.02389100007712841 -0.010507999919354916 -0.025800999253988266 -0.02572599984705448
          -0.008968000300228596 -0.026662999764084816 -0.025669999420642853 -0.014891000464558601 -0.02959500066936016 -0.016850000247359276
          -0.010521000251173973 -0.029222000390291214 -0.01819399930536747 -0.009872999973595142 -0.03376200050115585 -0.022565999999642372
          -0.00890200026333332 -0.033417001366615295 -0.022276999428868294 -0.0066999997943639755 -0.026355000212788582 -0.025428999215364456
          -0.0021669999696314335 -0.02692599967122078 -0.022369999438524246 -0.003558000084012747 -0.028473999351263046 -0.02190300077199936
          -0.002532999962568283 -0.029458999633789062 -0.020678000524640083 -0.005456000100821257 -0.03166799992322922 -0.020836999639868736
          -0.013814999721944332 -0.025066999718546867 -0.022343000397086143 -0.014902000315487385 -0.026971999555826187 -0.01983099989593029
          -0.011735999956727028 -0.024529999122023582 -0.02496499940752983 -0.01002500019967556 -0.0243500005453825 -0.027542000636458397
          -0.008698999881744385 -0.02495500072836876 -0.027509000152349472 -0.012039000168442726 -0.022690000012516975 -0.01716800034046173
          -0.009591000154614449 -0.02033199928700924 -0.01671300083398819 -0.005884999874979258 -0.025107000023126602 -0.017849000170826912
          -0.006876000203192234 -0.028655000030994415 -0.018262000754475594 -0.004056000150740147 -0.03057900071144104 -0.019845999777317047
          -0.00447099981829524 -0.02303599938750267 -0.030595999211072922 -0.001449999981559813 -0.0272659994661808 -0.020885000005364418
          -0.0005779999773949385 -0.025557000190019608 -0.024296000599861145 -0.00026599998818710446 -0.025426000356674194 -0.022554000839591026
          -0.003289999905973673 -0.024116000160574913 -0.028294000774621964 -0.002142000012099743 -0.02661300078034401 -0.01889999955892563
          -0.012206999585032463 -0.022702999413013458 -0.023746000602841377 -0.011342000216245651 -0.020065000280737877 -0.022917000576853752
          -0.010156000033020973 -0.020326999947428703 -0.01799900084733963 -0.010910999961197376 -0.02273399941623211 -0.02746099978685379
          -0.01245300006121397 -0.020540999248623848 -0.02886199951171875 -0.008005999960005283 -0.024000000208616257 -0.030073000118136406
          -0.009686999954283237 -0.023024000227451324 -0.030424999073147774 -0.009832000359892845 -0.019345000386238098 -0.017596999183297157
          -0.00849200040102005 -0.01920199953019619 -0.016822999343276024 -0.004335000179708004 -0.02150999940931797 -0.016502000391483307
          0.00002300000051036477 -0.021810999140143394 -0.017076000571250916 -0.0012610000558197498 -0.024994999170303345 -0.01941400021314621
          -0.007879000157117844 -0.021914999932050705 -0.03281699866056442 -0.0028359999414533377 -0.021990999579429626 -0.031108999624848366
          -0.004730000160634518 -0.020989999175071716 -0.031989000737667084 -0.0003870000073220581 -0.023756999522447586 -0.021157000213861465
          0.001183000043965876 -0.024174999445676804 -0.023533999919891357 0.0017719999887049198 -0.022634999826550484 -0.022373000159859657
          -0.001471000025048852 -0.022516999393701553 -0.02911599911749363 -0.011490000411868095 -0.02007799968123436 -0.02549000084400177
          -0.010737000033259392 -0.017821000888943672 -0.02390100061893463 -0.010538999922573566 -0.018490999937057495 -0.020961999893188477
          -0.009885000064969063 -0.016894999891519547 -0.022928999736905098 -0.01247899979352951 -0.01907699927687645 -0.02794099971652031
          -0.009851000271737576 -0.021245000883936882 -0.03152000159025192 -0.012217000126838684 -0.018415000289678574 -0.02795100025832653
          -0.010475999675691128 -0.01673099957406521 -0.02015800029039383 -0.007845999673008919 -0.01748800091445446 -0.018681000918149948
          -0.0036279999185353518 -0.020183999091386795 -0.01611899957060814 -0.004993000067770481 -0.016320999711751938 -0.020617999136447906
          0.0006389999762177467 -0.01918799988925457 -0.0162579994648695 0.00013000000035390258 -0.021501999348402023 -0.018519999459385872
          0.0004670000053010881 -0.02213600091636181 -0.019816000014543533 -0.007133000064641237 -0.01984100043773651 -0.03136499971151352
          -0.002452000044286251 -0.02022700011730194 -0.030090000480413437 -0.005468000192195177 -0.01939000003039837 -0.030757000669836998
          0.0012750000460073352 -0.01886500045657158 -0.02241400070488453 0.0027890000492334366 -0.02130899950861931 -0.02383200079202652
          -0.01166400033980608 -0.018397999927401543 -0.026580000296235085 -0.01183599978685379 -0.0177800003439188 -0.02792000025510788
          -0.010228999890387058 -0.0162540003657341 -0.020862000063061714 -0.00853899959474802 -0.015413999557495117 -0.02302899956703186
          -0.007883000187575817 -0.016025999560952187 -0.024375999346375465 -0.010174999944865704 -0.017342999577522278 -0.02913999930024147
          -0.008337999694049358 -0.017966000363230705 -0.03032499924302101 -0.0038560000248253345 -0.014557999558746815 -0.0228860005736351
          -0.0012329999590292573 -0.01293299999088049 -0.024164000526070595 0.00044800000614486635 -0.014449999667704105 -0.021926000714302063
          0.0007769999792799354 -0.015797000378370285 -0.020332999527454376 0.0007849999819882214 -0.01590000092983246 -0.021483000367879868
          -0.0020129999611526728 -0.016116000711917877 -0.028774000704288483 -0.004435000009834766 -0.01833299919962883 -0.030175000429153442
          -0.006850999779999256 -0.016589999198913574 -0.028912000358104706 -0.005750999785959721 -0.016930999234318733 -0.029527999460697174
          0.0010870000114664435 -0.014686999842524529 -0.023346999660134315 0.0029690000228583813 -0.015425000339746475 -0.024783000349998474
          0.0025969999842345715 -0.015487000346183777 -0.026210999116301537 -0.009030000306665897 -0.01671300083398819 -0.02875100076198578
          -0.004832000005990267 -0.01450899988412857 -0.02483999915421009 -0.004517000168561935 -0.015017000027000904 -0.02672100067138672
          -0.0024840000551193953 -0.012954999692738056 -0.024646999314427376 -0.0007060000207275152 -0.012608000077307224 -0.025673000141978264
          -0.00007500000356230885 -0.013117000460624695 -0.02370700053870678 -0.004784999880939722 -0.016457000747323036 -0.028346000239253044
          -0.003131000092253089 -0.014809999614953995 -0.027746999636292458 -0.0004560000088531524 -0.013655999675393105 -0.027272000908851624
          0.0013729999773204327 -0.013172999955713749 -0.02571900002658367
          <InformationKey name="L2_NORM_RANGE" location="vtkDataArray" length="2">
            <Value index="0">
              0.025157706718
            </Value>
            <Value index="1">
              0.041792022711
            </Value>
          </InformationKey>
        </DataArray>
      </Points>
      <Verts>
        <DataArray type="Int64" Name="connectivity" format="ascii" RangeMin="1e+299" RangeMax="-1e+299">
        </DataArray>
        <DataArray type="Int64" Name="offsets" format="ascii" RangeMin="1e+299" RangeMax="-1e+299">
        </DataArray>
      </Verts>
      <Lines>
        <DataArray type="Int64" Name="connectivity" format="ascii" RangeMin="1e+299" RangeMax="-1e+299">
        </DataArray>
        <DataArray type="Int64" Name="offsets" format="ascii" RangeMin="1e+299" RangeMax="-1e+299">
        </DataArray>
      </Lines>
      <Strips>
        <DataArray type="Int64" Name="connectivity" format="ascii" RangeMin="1e+299" RangeMax="-1e+299">
        </DataArray>
        <DataArray type="Int64" Name="offsets" format="ascii" RangeMin="1e+299" RangeMax="-1e+299">
        </DataArray>
      </Strips>
      <Polys>
        <DataArray type="Int32" Name="connectivity" format="ascii" RangeMin="0" RangeMax="104">
          0 1 2 0 2 3
          0 4 1 5 4 0
          6 0 3 0 6 7
          5 0 7 1 8 2
          9 8 1 4 9 1
          8 10 2 3 2 10
          3 10 11 3 12 6
          12 3 11 4 13 9
          4 14 13 5 14 4
          5 7 15 5 15 16
          14 5 16 17 6 12
          6 18 19 6 19 20
          6 20 21 7 6 16
          16 6 21 17 18 6
          16 15 7 10 8 22
          23 22 8 8 9 23
          13 23 9 22 24 10
          10 24 11 11 24 25
          26 11 25 26 12 11
          26 17 12 23 13 27
          14 27 13 14 28 27
          14 29 28 30 29 14
          31 14 21 31 30 14
          14 16 21 32 18 17
          26 32 17 19 18 33
          34 35 18 34 18 36
          18 32 36 18 35 33
          33 20 19 31 20 37
          20 33 37 21 20 31
          38 24 22 23 39 22
          22 39 38 23 27 40
          23 40 39 41 24 38
          25 24 41 25 41 42
          43 25 44 43 26 25
          25 42 44 26 43 32
          27 28 40 40 28 45
          46 45 28 29 47 28
          46 28 47 30 37 29
          29 48 47 48 29 49
          37 49 29 30 31 37
          32 43 50 32 51 36
          50 52 32 51 32 52
          37 33 49 33 53 49
          53 33 35 34 54 35
          36 54 34 35 55 53
          55 35 54 54 36 56
          51 56 36 57 41 38
          58 57 38 58 38 39
          59 39 40 39 59 60
          39 60 58 40 45 59
          61 42 41 61 41 57
          62 42 63 63 42 61
          62 44 42 50 43 44
          50 44 62 45 64 59
          45 46 65 64 45 65
          66 67 46 46 67 65
          47 66 46 47 68 66
          68 47 48 49 69 48
          68 48 69 70 69 49
          49 53 70 71 50 62
          50 71 52 52 72 51
          72 56 51 52 71 73
          52 73 72 55 74 53
          53 74 70 55 54 75
          75 54 56 55 75 74
          56 72 75 57 76 61
          57 58 76 76 58 77
          60 77 58 59 64 78
          60 59 78 60 78 79
          80 60 79 60 80 77
          61 76 63 62 63 81
          62 81 82 62 82 71
          76 77 63 63 77 81
          65 78 64 65 67 78
          66 68 67 78 67 83
          67 84 83 85 84 67
          67 68 86 85 67 86
          86 68 87 87 68 69
          87 69 74 70 74 69
          82 73 71 75 72 88
          72 89 88 89 72 73
          73 82 90 73 91 89
          73 90 91 92 87 74
          75 93 74 92 74 93
          88 94 75 93 75 94
          77 95 81 95 77 80
          78 83 79 83 96 79
          80 79 96 80 97 95
          80 96 97 82 81 95
          90 82 95 84 98 83
          83 98 96 99 98 84
          100 99 84 85 100 84
          86 87 85 87 92 85
          92 100 85 101 88 89
          102 103 88 88 103 94
          88 101 102 101 89 91
          97 90 95 101 90 97
          90 101 91 93 104 92
          92 104 100 104 93 94
          94 103 104 97 96 98
          103 97 99 102 101 97
          97 103 102 97 98 99
          103 99 104 99 100 104
        </DataArray>
        <DataArray type="Int32" Name="offsets" format="ascii" RangeMin="3" RangeMax="618">
          3 6 9 12 15 18
          21 24 27 30 33 36
          39 42 45 48 51 54
          57 60 63 66 69 72
          75 78 81 84 87 90
          93 96 99 102 105 108
          111 114 117 120 123 126
          129 132 135 138 141 144
          147 150 153 156 159 162
          165 168 171 174 177 180
          183 186 189 192 195 198
          201 204 207 210 213 216
          219 222 225 228 231 234
          237 240 243 246 249 252
          255 258 261 264 267 270
          273 276 279 282 285 288
          291 294 297 300 303 306
          309 312 315 318 321 324
          327 330 333 336 339 342
          345 348 351 354 357 360
          363 366 369 372 375 378
          381 384 387 390 393 396
          399 402 405 408 411 414
          417 420 423 426 429 432
          435 438 441 444 447 450
          453 456 459 462 465 468
          471 474 477 480 483 486
          489 492 495 498 501 504
          507 510 513 516 519 522
          525 528 531 534 537 540
          543 546 549 552 555 558
          561 564 567 570 573 576
          579 582 585 588 591 594
          597 600 603 606 609 612
          615 618
        </DataArray>
      </Polys>
    </Piece>
  </PolyData>
</VTKFile>
