<?xml version="1.0"?>
<VTKFile type="PolyData" version="0.1" byte_order="LittleEndian" header_type="UInt32" compressor="vtkZLibDataCompressor">
  <PolyData>
    <Piece NumberOfPoints="1111" NumberOfVerts="0" NumberOfLines="0" NumberOfStrips="0" NumberOfPolys="2218">
      <PointData Normals="Normals">
        <DataArray type="Float32" Name="Normals" NumberOfComponents="3" format="ascii" RangeMin="0.9999992033206844" RangeMax="1.0000007872801702">
          0.3119480013847351 -0.48146799206733704 0.8190709948539734 0.5119490027427673 -0.4828279912471771 0.7104830145835876
          0.34352898597717285 -0.354108989238739 0.869825005531311 0.16412100195884705 -0.37005099654197693 0.9143999814987183
          0.4895539879798889 -0.6260740160942078 0.6069329977035522 0.24056999385356903 -0.600193977355957 0.7628189921379089
          0.3954150080680847 -0.765699028968811 0.5072979927062988 0.5473440289497375 -0.43369099497795105 0.7157700061798096
          0.7180190086364746 -0.5042009949684143 0.4798240065574646 0.7276930212974548 -0.51214998960495 0.45625200867652893
          0.14472100138664246 -0.2114800065755844 0.966609001159668 0.6129130125045776 -0.1612520068883896 0.7735220193862915
          0.32653701305389404 -0.1236020028591156 0.937067985534668 0.10593999922275543 -0.3555830121040344 0.9286209940910339
          0.6349899768829346 -0.7171400189399719 0.28722599148750305 0.5102580189704895 -0.8356850147247314 0.20314300060272217
          0.06635899841785431 -0.5677840113639832 0.820497989654541 0.30459800362586975 -0.8866090178489685 0.3480600118637085
          0.1394210010766983 -0.833433985710144 0.534741997718811 0.40529298782348633 -0.9094579815864563 0.09286999702453613
          0.7107030153274536 -0.41370901465415955 0.5689870119094849 0.7740380167961121 -0.5482100248336792 0.31675100326538086
          0.757968008518219 -0.6090360283851624 0.23357999324798584 0.754925012588501 -0.6441400051116943 0.12317699939012527
          0.03449299931526184 -0.25436198711395264 0.9664940237998962 0.03449099883437157 -0.08491499722003937 0.9957910180091858
          0.10666800290346146 0.019019000232219696 0.994113028049469 0.8197739720344543 -0.265608012676239 0.5073680281639099
          0.8302950263023376 -0.11166699975728989 0.5460230112075806 0.6971650123596191 0.09847000241279602 0.7101160287857056
          0.386352002620697 0.09363999962806702 0.9175860285758972 -0.008077000267803669 -0.47307199239730835 0.8809869885444641
          0.6228489875793457 -0.7768650054931641 -0.09240400046110153 0.5203679800033569 -0.8334370255470276 -0.18601100146770477
          -0.057468999177217484 -0.7779589891433716 0.62568199634552 0.290677011013031 -0.956682026386261 -0.016334999352693558
          0.18693900108337402 -0.9689580202102661 0.16178299486637115 0.022082999348640442 -0.9572349786758423 0.2884669899940491
          0.39886701107025146 -0.8741499781608582 -0.27706900238990784 0.8014140129089355 -0.4896000027656555 0.3435499966144562
          0.714775025844574 -0.6837559938430786 -0.14688099920749664 0.7628009915351868 -0.6443880200386047 0.0538490004837513
          -0.02894599922001362 -0.12033800035715103 0.9923110008239746 -0.0627480000257492 -0.29111599922180176 0.9546279907226562
          -0.015447000041604042 -0.481207013130188 0.8764709830284119 -0.057764001190662384 0.10650300234556198 0.9926329851150513
          0.11078699678182602 0.25023600459098816 0.9618260264396667 0.8866119980812073 -0.4376460015773773 0.149617999792099
          0.9454759955406189 -0.23302799463272095 0.22753499448299408 0.9144619703292847 -0.002788000041618943 0.40466099977493286
          0.46690601110458374 0.26388201117515564 0.8440170288085938 0.7747169733047485 0.12824100255966187 0.6191669702529907
          -0.11018700152635574 -0.6436880230903625 0.7573140263557434 0.6417639851570129 -0.6668230295181274 -0.3787960112094879
          0.5440970063209534 -0.7064909934997559 -0.4525800049304962 -0.16630299389362335 -0.8588950037956238 0.4844000041484833
          -0.0894939973950386 -0.9744430184364319 0.20603999495506287 0.16002300381660461 -0.9823740124702454 -0.09661500155925751
          0.21780599653720856 -0.9104490280151367 -0.3516309857368469 0.01903500035405159 -0.9991899728775024 -0.0354669988155365
          0.2932150065898895 -0.7397819757461548 -0.6055970191955566 0.8097289800643921 -0.5306749939918518 -0.25044599175453186
          -0.2219270020723343 -0.27410998940467834 0.9357410073280334 -0.086947001516819 0.01643100008368492 0.9960770010948181
          -0.08825500309467316 -0.5921459794044495 0.8009830117225647 -0.17012399435043335 -0.4156689941883087 0.8934630155563354
          -0.1102989986538887 -0.7358019948005676 0.6681540012359619 0.05377199873328209 0.2507359981536865 0.9665610194206238
          -0.03477000072598457 0.12355600297451019 0.9917280077934265 0.23280900716781616 0.3760380148887634 0.8968809843063354
          0.9206029772758484 -0.3581399917602539 -0.15564900636672974 0.9956600069999695 -0.08596199750900269 0.03564799949526787
          0.9486939907073975 -0.26357001066207886 -0.1746719926595688 0.9818140268325806 0.06657099723815918 0.1777929961681366
          0.5148559808731079 0.2780809998512268 0.8109220266342163 0.8735349774360657 0.13083000481128693 0.4688499867916107
          0.5718870162963867 0.24369500577449799 0.7832990288734436 0.6860700249671936 0.1934099942445755 0.7013559937477112
          0.7074369788169861 -0.4798240065574646 -0.5189430117607117 0.5953059792518616 -0.48598599433898926 -0.6398659944534302
          0.46633800864219666 -0.6106119751930237 -0.640064001083374 -0.2527259886264801 -0.9137139916419983 0.3182069957256317
          -0.240339994430542 -0.9696030020713806 0.04588799923658371 -0.10868299752473831 -0.9871199727058411 -0.1173970028758049
          0.06943800300359726 -0.9475299715995789 -0.3120349943637848 0.08560600131750107 -0.823328971862793 -0.5610719919204712
          -0.040897998958826065 -0.9199979901313782 -0.38978299498558044 0.2957659959793091 -0.558085024356842 -0.7752829790115356
          0.11137499660253525 -0.5174689888954163 -0.8484230041503906 0.01843300089240074 -0.6966570019721985 -0.7171679735183716
          0.8348050117492676 -0.32762300968170166 -0.442452996969223 -0.27539199590682983 -0.5168219804763794 0.8105890154838562
          -0.44196000695228577 -0.41009101271629333 0.7978079915046692 -0.37665900588035583 -0.5215129852294922 0.7656049728393555
          -0.2512820065021515 -0.10702499747276306 0.9619789719581604 -0.4437519907951355 -0.2625330090522766 0.8568310141563416
          -0.15907199680805206 0.05144200101494789 0.9859259724617004 -0.20805999636650085 -0.6975089907646179 0.6857060194015503
          -0.16968399286270142 -0.8579980134963989 0.4848160147666931 0.1871419996023178 0.17152300477027893 0.9672420024871826
          0.31065401434898376 0.24183699488639832 0.9192439913749695 0.3445169925689697 0.36013099551200867 0.8669570088386536
          0.04564199969172478 0.061737000942230225 0.997048020362854 0.9443910121917725 -0.13641700148582458 -0.29919299483299255
          0.9675989747047424 0.0004180000105407089 -0.2524929940700531 0.9480710029602051 0.19196200370788574 0.25359898805618286
          0.9898489713668823 0.08321499824523926 -0.11521200090646744 0.5917069911956787 0.26816898584365845 0.7602419853210449
          0.7717819809913635 0.2705340087413788 0.5754680037498474 0.46800801157951355 0.28953099250793457 0.8349490165710449
          0.6583229899406433 -0.34742701053619385 -0.6677619814872742 0.4478810131549835 -0.4630869925022125 -0.7648220062255859
          0.47390100359916687 -0.28942999243736267 -0.8316540122032166 0.43413299322128296 -0.3750250041484833 -0.8190760016441345
          -0.27350398898124695 -0.9474430084228516 0.16597400605678558 -0.2708120048046112 -0.9593459963798523 -0.07947299629449844
          -0.261584997177124 -0.934436023235321 -0.2416680008172989 -0.4005270004272461 -0.8650230169296265 -0.30218198895454407
          -0.04784499853849411 -0.7889019846916199 -0.6126539707183838 -0.23200200498104095 -0.8299149870872498 -0.5073620080947876
          0.24776099622249603 -0.4225189983844757 -0.871832013130188 0.024605000391602516 -0.48233601450920105 -0.8756409883499146
          0.2020310014486313 -0.3432979881763458 -0.9172409772872925 0.08569400012493134 -0.4246020019054413 -0.9013149738311768
          -0.07729499787092209 -0.6218540072441101 -0.7793089747428894 -0.2238990068435669 -0.7063519954681396 -0.6715180277824402
          0.8457859754562378 -0.14282700419425964 -0.5140489935874939 -0.3900730013847351 -0.7459220290184021 0.5398539900779724
          -0.42779698967933655 -0.6438890099525452 0.6343479752540588 -0.5689210295677185 -0.6277430057525635 0.5312889814376831
          -0.601315975189209 -0.44631001353263855 0.662742018699646 -0.41508400440216064 -0.0798339992761612 0.9062740206718445
          -0.6155809760093689 -0.3600429892539978 0.7010200023651123 -0.026256000623106956 0.039236001670360565 0.9988849759101868
          -0.13585500419139862 0.09750299900770187 0.9859189987182617 -0.36141499876976013 0.08830200135707855 0.9282140135765076
          -0.41350001096725464 0.03488500043749809 0.9098349809646606 -0.258311003446579 -0.918300986289978 0.2999959886074066
          0.3788599967956543 0.2003439962863922 0.9035090208053589 0.1153779998421669 0.08225899934768677 0.9899100065231323
          0.371304988861084 0.33076199889183044 0.8675990104675293 -0.08213300257921219 0.05128899961709976 0.9953010082244873
          0.763899028301239 -0.10708799958229065 -0.6363880038261414 0.914277970790863 -0.034095000475645065 -0.4036490023136139
          0.9812999963760376 0.18197299540042877 0.06273099780082703 0.7330920100212097 0.33230701088905334 0.5934209823608398
          0.8033980131149292 0.3400590121746063 0.4887849986553192 0.9726709723472595 0.001339999958872795 -0.2321850061416626
          0.9686679840087891 0.19963200390338898 0.1477469950914383 0.9866170287132263 0.16288599371910095 -0.007445999886840582
          0.5145549774169922 0.3569140136241913 0.7796440124511719 0.6477770209312439 -0.22651100158691406 -0.7273769974708557
          0.533191978931427 -0.1437239944934845 -0.8336960077285767 0.372965008020401 -0.23330000042915344 -0.898036003112793
          -0.3510800004005432 -0.9329019784927368 -0.08022499829530716 -0.5743880271911621 -0.7869660258293152 -0.2253050059080124
          -0.4749099910259247 -0.6888139843940735 -0.5477190017700195 -0.3802820146083832 -0.7661049962043762 -0.5181400179862976
          -0.01609399914741516 -0.4893060028553009 -0.8719639778137207 -0.08329399675130844 -0.4175710082054138 -0.9048190116882324
          0.038878001272678375 -0.42772001028060913 -0.9030749797821045 0.08587700128555298 -0.35192999243736267 -0.9320780038833618
          0.2399439960718155 -0.22416900098323822 -0.9445499777793884 -0.2147579938173294 -0.5575900077819824 -0.8018559813499451
          -0.5686119794845581 -0.7299659848213196 0.3792490065097809 -0.5280659794807434 -0.8393340110778809 0.1290930062532425
          -0.6440839767456055 -0.7382720112800598 0.20027300715446472 -0.6872689723968506 -0.5885519981384277 0.4257560074329376
          -0.5449920296669006 -0.007552000228315592 0.8384069800376892 -0.6498050093650818 -0.29566600918769836 0.7002390027046204
          -0.7041419744491577 -0.5427510142326355 0.45782700181007385 -0.18250399827957153 0.03643300011754036 0.9825299978256226
          -0.13513700664043427 0.06583800166845322 0.9886369705200195 -0.5628510117530823 0.05272899940609932 0.824874997138977
          -0.6784840226173401 0.036403000354766846 0.7337120175361633 -0.6555420160293579 -0.0837320014834404 0.7505019903182983
          -0.41087400913238525 -0.06288599967956543 0.9095209836959839 0.5262479782104492 0.4023889899253845 0.7490969896316528
          0.2543559968471527 0.11613299697637558 0.960112988948822 0.45844700932502747 0.21850499510765076 0.8614420294761658
          0.5297920107841492 0.355118989944458 0.7702019810676575 0.08465100079774857 0.07895199954509735 0.9932780265808105
          0.7910460233688354 -0.058065999299287796 -0.6089940071105957 0.9311230182647705 0.2783460021018982 0.23565399646759033
          0.7438880205154419 0.38026300072669983 0.5495740175247192 0.8950780034065247 -0.02780899964272976 -0.4450410008430481
          0.9938229918479919 0.08923999965190887 -0.06596899777650833 0.9353280067443848 0.3068769872188568 0.17603300511837006
          0.5798900127410889 -0.08365199714899063 -0.81038898229599 0.3348560035228729 -0.12025299668312073 -0.934565007686615
          -0.6437770128250122 -0.7624800205230713 -0.06461399793624878 -0.6593430042266846 -0.7054910063743591 -0.25990399718284607
          -0.5599070191383362 -0.7056930065155029 -0.4341669976711273 -0.30351999402046204 -0.5156009793281555 -0.8012679815292358
          -0.4141030013561249 -0.5893669724464417 -0.6936609745025635 -0.5153059959411621 -0.5919119715690613 -0.6197590231895447
          0.005628999788314104 -0.38556399941444397 -0.9226639866828918 -0.26774200797080994 -0.3566949963569641 -0.8950319886207581
          -0.06604199856519699 -0.3344449996948242 -0.940097987651825 -0.1378829926252365 -0.26014500856399536 -0.9556739926338196
          0.025769000872969627 -0.27603399753570557 -0.9608020186424255 0.12229300290346146 -0.1793690025806427 -0.9761509895324707
          -0.6754670143127441 -0.7144359946250916 0.18255099654197693 -0.7007150053977966 -0.11800500005483627 0.7036139965057373
          -0.7498940229415894 -0.5256230235099792 0.4017210006713867 -0.7433859705924988 -0.3478679955005646 0.5712850093841553
          -0.7445229887962341 -0.6154209971427917 0.25873199105262756 0.026606999337673187 0.06568499654531479 0.9974859952926636
          0.016303999349474907 0.10165199637413025 0.9946860074996948 -0.11440999805927277 0.04176099970936775 0.9925559759140015
          -0.6914600133895874 -0.06979499757289886 0.7190350294113159 -0.7424150109291077 -0.005504999775439501 0.6699169874191284
          -0.8298969864845276 -0.03562900051474571 0.5567770004272461 -0.8140450119972229 0.07677199691534042 0.5757060050964355
          -0.8815760016441345 0.013698000460863113 0.47184300422668457 -0.7371410131454468 0.012671999633312225 0.6756200194358826
          -0.7941769957542419 -0.08205299824476242 0.6021209955215454 -0.6729559898376465 -0.1281690001487732 0.7284939885139465
          -0.8102700114250183 -0.12877300381660461 0.5717350244522095 -0.4012889862060547 -0.06324400007724762 0.9137660264968872
          0.19140300154685974 0.15240199863910675 0.9696069955825806 0.1190819963812828 0.10601399838924408 0.9872090220451355
          0.5745229721069336 0.2979089915752411 0.7623469829559326 0.6031140089035034 0.2325039952993393 0.763018012046814
          0.33903199434280396 0.19643600285053253 0.9200379848480225 0.5399529933929443 0.35868901014328003 0.7614409923553467
          0.7038350105285645 -0.04197400063276291 -0.7091220021247864 0.7864890098571777 0.4057779908180237 0.465597003698349
          0.6101670265197754 0.41529199481010437 0.6747069954872131 0.9687690138816833 0.13673299551010132 -0.2068600058555603
          0.8461750149726868 0.05557199940085411 -0.5299990177154541 0.9308469891548157 0.26154500246047974 -0.25518301129341125
          0.836421012878418 0.4428359866142273 0.32294800877571106 0.8832340240478516 0.462787002325058 0.07566399872303009
          0.5920929908752441 -0.03397800028324127 -0.8051530122756958 0.21506300568580627 0.0056940000504255295 -0.9765840172767639
          0.0819540023803711 -0.14274699985980988 -0.9863600134849548 0.07615499943494797 -0.08739600330591202 -0.993257999420166
          -0.7477759718894958 -0.661529004573822 0.0566600002348423 -0.6564739942550659 -0.6009460091590881 -0.4559670090675354
          -0.774948000907898 -0.5878459811210632 -0.23214800655841827 -0.8252699971199036 -0.5647240281105042 0.004023999907076359
          -0.3926050066947937 -0.4639360010623932 -0.7941190004348755 -0.5380169749259949 -0.42253199219703674 -0.7293869853019714
          -0.2134840041399002 -0.23487499356269836 -0.9482920169830322 -0.060311999171972275 -0.1524379998445511 -0.9864709973335266
          -0.09291300177574158 -0.1300940066576004 -0.9871389865875244 -0.8459320068359375 -0.30826500058174133 0.4351690113544464
          -0.8216189742088318 -0.49712300300598145 0.27894699573516846 0.1469469964504242 0.13632899522781372 0.9797049760818481
          -0.049970000982284546 0.0805710032582283 0.9954959750175476 -0.4085429906845093 -0.016161000356078148 0.9125959873199463
          -0.7895990014076233 -0.1538819968700409 0.5940150022506714 -0.8484029769897461 -0.16380000114440918 0.503371000289917
          -0.8817070126533508 -0.1657090038061142 0.4417389929294586 -0.8734570145606995 -0.04554300010204315 0.48476698994636536
          -0.9332510232925415 -0.17977699637413025 0.31100401282310486 -0.9293869733810425 -0.164901003241539 0.33022400736808777
          -0.9513919949531555 0.019749000668525696 0.30734801292419434 -0.9171310067176819 0.18545100092887878 0.35281699895858765
          -0.9383640289306641 0.17179399728775024 0.2999339997768402 -0.9959989786148071 -0.05669400095939636 0.06908299773931503
          -0.9095100164413452 -0.18742400407791138 0.3710309863090515 -0.9826110005378723 0.17205099761486053 0.06982199847698212
          -0.6155539751052856 -0.09096000343561172 0.7828279733657837 -0.7802960276603699 -0.17692500352859497 0.5998629927635193
          0.7271000146865845 0.2562650144100189 0.636909008026123 0.5845879912376404 0.30349200963974 0.7524290084838867
          0.7886369824409485 0.2283789962530136 0.5708720088005066 0.3502489924430847 0.18943600356578827 0.9172999858856201
          0.5466750264167786 0.205827996134758 0.8116530179977417 0.8122239708900452 0.3344449996948242 0.4779529869556427
          0.7681949734687805 0.4729529917240143 0.43149998784065247 0.8041419982910156 0.12516899406909943 -0.5811100006103516
          0.8864889740943909 0.32909899950027466 -0.32531800866127014 0.8687440156936646 0.47647199034690857 -0.135126993060112
          0.8397539854049683 0.5384659767150879 -0.06976799666881561 0.8732929825782776 0.4858750104904175 0.03585100173950195
          0.4709540009498596 0.04968300089240074 -0.8807579874992371 0.6919530034065247 0.1624789983034134 -0.7034220099449158
          -0.0819540023803711 -0.045951999723911285 -0.995576024055481 0.31749698519706726 0.12317100167274475 -0.9402260184288025
          -0.051777999848127365 -0.06561099737882614 -0.9965010285377502 0.1351490020751953 -0.0008019999950192869 -0.9908249974250793
          0.35594600439071655 0.21810199320316315 -0.9086989760398865 0.5316339731216431 0.17093400657176971 -0.8295459747314453
          -0.07437100261449814 -0.056974999606609344 -0.995602011680603 -0.07818800210952759 -0.03245000168681145 -0.9964100122451782
          -0.8046169877052307 -0.5371469855308533 -0.25311100482940674 -0.8820840120315552 -0.4623660147190094 0.09025300294160843
          -0.8311650156974792 -0.4544160068035126 -0.3204219937324524 -0.7627720236778259 -0.3533889949321747 -0.5415670275688171
          -0.2658190131187439 -0.2565149962902069 -0.929269015789032 -0.8374819755554199 -0.339042991399765 -0.42857301235198975
          -0.607479989528656 -0.25609201192855835 -0.7519209980964661 -0.4141309857368469 -0.28151199221611023 -0.86558997631073
          -0.05784599855542183 -0.07923100143671036 -0.9951769709587097 -0.04551900178194046 -0.0448249988257885 -0.9979569911956787
          -0.8736240267753601 -0.31116899847984314 0.3741050064563751 0.15255700051784515 0.1312350034713745 0.9795429706573486
          -0.21279899775981903 0.05591699853539467 0.9754949808120728 -0.13009999692440033 0.06390400230884552 0.9894390106201172
          0.07976199686527252 0.11535199731588364 0.9901170134544373 -0.22428099811077118 0.06357699632644653 0.9724479913711548
          -0.42317700386047363 -0.04901000112295151 0.9047200083732605 -0.6290590167045593 -0.08860500156879425 0.7722910046577454
          -0.6510030031204224 -0.12398400157690048 0.7488809823989868 -0.8812369704246521 -0.329910010099411 0.33849701285362244
          -0.9316459894180298 -0.33988600969314575 0.12849999964237213 -0.9778540134429932 -0.16605299711227417 0.12738700211048126
          -0.9613339900970459 -0.05854099988937378 0.26909101009368896 -0.9511190056800842 -0.22695399820804596 0.2094379961490631
          -0.9617030024528503 -0.27313101291656494 0.022964000701904297 -0.9920579791069031 0.02377600036561489 0.12351199984550476
          -0.97394198179245 0.2217639982700348 0.0475119985640049 -0.9731119871139526 0.1583549976348877 0.16726499795913696
          -0.9632580280303955 -0.2661220133304596 0.036233000457286835 -0.9664049744606018 -0.1920589953660965 -0.1708039939403534
          -0.9822319746017456 -0.008968000300228596 -0.18745799362659454 -0.8914059996604919 -0.2571850121021271 0.37316399812698364
          -0.9297639727592468 0.20670300722122192 -0.30465298891067505 -0.9511970281600952 0.16428999602794647 -0.2612139880657196
          -0.7399240136146545 -0.16025400161743164 0.6533229947090149 0.9494590163230896 0.23374900221824646 0.20949700474739075
          0.8676390051841736 0.22770899534225464 0.44198501110076904 0.7370190024375916 0.2167939990758896 0.640159010887146
          0.4020479917526245 0.190092995762825 0.8956689834594727 0.25841501355171204 0.15076899528503418 0.9541959762573242
          0.4827130138874054 0.20564499497413635 0.8512920141220093 0.852288007736206 0.4231109917163849 0.307543009519577
          0.8909890055656433 0.3584980070590973 0.2786009907722473 0.9337739944458008 0.30717599391937256 0.18360300362110138
          0.8133919835090637 0.41721799969673157 -0.405366986989975 0.7607679963111877 0.5479900240898132 -0.3477639853954315
          0.8201349973678589 0.4573270082473755 -0.34384799003601074 0.9369140267372131 0.347817987203598 -0.03485099971294403
          0.8862429857254028 0.33902299404144287 -0.315650999546051 0.4905950129032135 0.21671000123023987 -0.8440099954605103
          0.6015380024909973 0.35834801197052 -0.7139599919319153 -0.05744900181889534 -0.013410000130534172 -0.9982579946517944
          -0.033417001366615295 -0.14553600549697876 -0.9887880086898804 0.07373400032520294 -0.11815500259399414 -0.9902539849281311
          0.4230549931526184 -0.01947600021958351 -0.9058949947357178 0.6519240140914917 0.44483599066734314 -0.6140980124473572
          0.7594829797744751 0.29527100920677185 -0.5796549916267395 0.8603739738464355 0.22311200201511383 -0.4582329988479614
          0.8178920149803162 0.08802899718284607 -0.5685989856719971 0.6251559853553772 0.03046100027859211 -0.7799050211906433
          -0.9471650123596191 -0.31897100806236267 -0.03371899947524071 -0.8879510164260864 -0.33664798736572266 -0.313387006521225
          -0.8937060236930847 -0.3272159993648529 -0.30695098638534546 -0.3326619863510132 -0.16724799573421478 -0.9280970096588135
          -0.89621901512146 -0.32286500930786133 -0.30421900749206543 -0.9022660255432129 -0.26426801085472107 -0.34070301055908203
          -0.9177640080451965 -0.26575300097465515 -0.29510200023651123 -0.7442139983177185 -0.2566849887371063 -0.6166509985923767
          -0.4655590057373047 -0.15255500376224518 -0.8717700242996216 -0.6504570245742798 -0.11879300326108932 -0.7501959800720215
          -0.8393480181694031 -0.14810200035572052 -0.5230299830436707 -0.20695799589157104 -0.04569799825549126 -0.9772819876670837
          -0.07474800199270248 -0.09742999821901321 -0.9924309849739075 -0.2007019966840744 0.07964599877595901 0.9764090180397034
          0.09131799638271332 0.09641099721193314 0.9911440014839172 -0.31126299500465393 -0.03229299932718277 0.949774980545044
          -0.10831700265407562 0.029851000756025314 0.9936680197715759 -0.6149370074272156 -0.19205699861049652 0.7648320198059082
          -0.7343810200691223 -0.18493999540805817 0.6530550122261047 -0.9842619895935059 -0.07341600209474564 -0.16074199974536896
          -0.9941779971122742 0.06790900230407715 -0.08366300165653229 -0.9043020009994507 0.05251900106668472 -0.42364999651908875
          -0.8970609903335571 -0.3462119996547699 0.2746259868144989 -0.9128649830818176 -0.4001379907131195 -0.08103399723768234
          -0.8787410259246826 -0.33902499079704285 -0.335970014333725 -0.8924319744110107 -0.1875690072774887 -0.41034600138664246
          -0.8661389946937561 0.04843800142407417 -0.4974510073661804 -0.7849230170249939 -0.23117700219154358 0.5748500227928162
          -0.7337939739227295 0.06182600185275078 -0.6765530109405518 -0.7919589877128601 0.1534299999475479 -0.5909820199012756
          0.9783980250358582 0.15759700536727905 -0.1337909996509552 0.9891639947891235 0.006858999840915203 -0.1466519981622696
          0.958437979221344 0.23704500496387482 -0.1587650030851364 0.9414979815483093 0.11206799745559692 0.3178409934043884
          0.8149170279502869 0.1430779993534088 0.5616400241851807 0.5823109745979309 0.1533920019865036 0.798363983631134
          0.30779099464416504 0.08076000213623047 0.9480199813842773 0.8566849827766418 0.3398039937019348 -0.38810399174690247
          0.9186739921569824 0.2753770053386688 -0.2832069993019104 0.09446199983358383 -0.2530849874019623 -0.9628210067749023
          -0.07005900144577026 -0.19238199293613434 -0.9788159728050232 -0.012210000306367874 -0.2396319955587387 -0.970786988735199
          0.3004570007324219 -0.15431900322437286 -0.9412279725074768 0.6242309808731079 -0.06772000342607498 -0.7782989740371704
          0.7124639749526978 0.02007799968123436 -0.7014210224151611 0.9364230036735535 0.11776900291442871 -0.3305169939994812
          0.87950599193573 0.05628899857401848 -0.4725460112094879 -0.5598379969596863 -0.03812500089406967 -0.8277249932289124
          -0.4223710000514984 -0.03560600057244301 -0.905722975730896 -0.25678500533103943 -0.08805199712514877 -0.9624490141868591
          -0.3671779930591583 -0.072843998670578 -0.9272940158843994 -0.25323399901390076 -0.20508700609207153 -0.9454159736633301
          0.12026699632406235 -0.004375999793410301 0.9927319884300232 -0.16882100701332092 -0.07847999781370163 0.9825170040130615
          -0.4411279857158661 -0.1136310026049614 0.8902220129966736 -0.8069530129432678 -0.3573800027370453 0.47021999955177307
          -0.6534839868545532 -0.38318899273872375 0.6527829766273499 -0.5262460112571716 -0.2562650144100189 0.8107979893684387
          -0.3744490146636963 -0.18890300393104553 0.9078019857406616 -0.878383994102478 -0.45568299293518066 0.1442040055990219
          -0.7673699855804443 -0.4366590082645416 -0.469543993473053 -0.8590270280838013 -0.47411900758743286 -0.1930920034646988
          -0.7285370230674744 -0.3697640001773834 -0.576636016368866 -0.7177450060844421 -0.25443100929260254 -0.648157000541687
          -0.720337986946106 -0.0750029981136322 -0.6895570158958435 -0.6170570254325867 0.03785699978470802 -0.7860069870948792
          0.9897400140762329 -0.02928300015628338 -0.13985000550746918 0.9892140030860901 0.06699900329113007 0.13025400042533875
          0.8591309785842896 -0.09485500305891037 -0.502888023853302 0.9632160067558289 -0.10890000313520432 -0.2456749975681305
          0.9043139815330505 0.17533999681472778 0.3891940116882324 0.6997179985046387 0.06555400043725967 0.7114049792289734
          0.8348079919815063 0.062192998826503754 0.5470179915428162 0.4828200042247772 0.049132999032735825 0.8743399977684021
          0.32394200563430786 -0.033775001764297485 0.9454740285873413 -0.05700799822807312 -0.33476999402046204 -0.9405739903450012
          0.0527379997074604 -0.3105179965496063 -0.9491029977798462 0.33878400921821594 -0.22674599289894104 -0.9131330251693726
          -0.06255000084638596 -0.3094170093536377 -0.9488670229911804 -0.1429460048675537 -0.24762499332427979 -0.958253026008606
          0.6480110287666321 -0.18942999839782715 -0.7376980185508728 -0.5165870189666748 -0.11874400079250336 -0.8479610085487366
          -0.49797800183296204 -0.3049769997596741 -0.8117930293083191 -0.257082998752594 -0.3543109893798828 -0.8990949988365173
          -0.0685340017080307 -0.1427990049123764 0.9873759746551514 0.18809300661087036 -0.10779999941587448 0.9762169718742371
          -0.2627060115337372 -0.16845600306987762 0.9500570297241211 -0.7863879799842834 -0.4838489890098572 0.38403698801994324
          -0.5476920008659363 -0.3606190085411072 0.7549759745597839 -0.6110590100288391 -0.48250600695610046 0.6275309920310974
          -0.4476040005683899 -0.27208200097084045 0.8518339991569519 -0.31254899501800537 -0.23525799810886383 0.920307993888855
          -0.8509690165519714 -0.5132499933242798 0.1114720031619072 -0.8510249853134155 -0.5138559937477112 -0.1082020029425621
          -0.7244139909744263 -0.5276690125465393 -0.4436100125312805 -0.4695169925689697 -0.42528900504112244 -0.7737460136413574
          0.9995890259742737 -0.023612000048160553 0.016232000663876534 0.9894570112228394 -0.05466800183057785 0.13411200046539307
          0.9887049794197083 -0.07040899991989136 -0.13230299949645996 0.9418780207633972 0.1514730006456375 0.29986798763275146
          0.977645993232727 0.027706999331712723 0.20842599868774414 0.8324829936027527 -0.19187599420547485 -0.5197650194168091
          0.8752850294113159 -0.18626399338245392 -0.4462969899177551 0.8147590160369873 -0.1717360019683838 -0.5537829995155334
          0.8781909942626953 -0.16053299605846405 -0.45056700706481934 0.984669029712677 -0.12682799994945526 -0.11975400149822235
          0.9748209714889526 -0.22275499999523163 -0.010220999829471111 0.9096660017967224 0.01716800034046173 0.4149850010871887