<?xml version="1.0"?>
<VTKFile type="PolyData" version="0.1" byte_order="LittleEndian" header_type="UInt32" compressor="vtkZLibDataCompressor">
  <PolyData>
    <Piece NumberOfPoints="2591" NumberOfVerts="0" NumberOfLines="0" NumberOfStrips="0" NumberOfPolys="5178">
      <PointData Normals="Normals">
        <DataArray type="Float32" Name="Normals" NumberOfComponents="3" format="ascii" RangeMin="0.9999992613778071" RangeMax="1.0000007986986352">
          -0.7931249737739563 -0.47976401448249817 0.37520501017570496 -0.7194640040397644 -0.3656400144100189 0.590490996837616
          -0.6906570196151733 -0.3273929953575134 0.6448310017585754 -0.813414990901947 -0.37661001086235046 0.4433070123195648
          -0.7117390036582947 -0.6378380060195923 0.29426100850105286 -0.8541949987411499 -0.5124319791793823 0.08811300247907639
          -0.7481510043144226 -0.6491079926490784 0.137580007314682 -0.6610649824142456 -0.2938919961452484 0.6903769969940186
          -0.734682023525238 -0.36073198914527893 0.5745559930801392 -0.6759510040283203 -0.26287901401519775 0.6884660124778748
          -0.681663990020752 -0.41382700204849243 0.6033909916877747 -0.9212110042572021 -0.38868799805641174 0.017069000750780106
          -0.7019879817962646 -0.46263301372528076 0.5414639711380005 -0.9458039999008179 -0.2599790096282959 0.1945910006761551
          -0.9114149808883667 -0.2907620072364807 0.29117101430892944 -0.8198440074920654 -0.38466399908065796 0.4241349995136261
          -0.5096619725227356 -0.8309159874916077 0.22321200370788574 -0.7222179770469666 -0.5598300099372864 0.40619200468063354
          -0.5242859721183777 -0.8430709838867188 0.11981300264596939 -0.5887110233306885 -0.8061010241508484 -0.06017399951815605
          -0.7878149747848511 -0.602400004863739 -0.12830400466918945 -0.8759750127792358 -0.45548000931739807 -0.15876099467277527
          -0.868736982345581 -0.44870999455451965 -0.20965300500392914 -0.7070729732513428 -0.7057240009307861 -0.04473400115966797
          -0.7178570032119751 -0.3481050133705139 0.6029130220413208 -0.7733380198478699 -0.3057299852371216 0.5554080009460449
          -0.7799019813537598 -0.24491199851036072 0.5759959816932678 -0.6876699924468994 -0.4665899872779846 0.5562400221824646
          -0.8455770015716553 -0.3292349874973297 -0.4202429950237274 -0.8235480189323425 -0.38941800594329834 -0.41245800256729126
          -0.9619280099868774 -0.25133299827575684 -0.10736200213432312 -0.6274089813232422 -0.48713400959968567 0.6075019836425781
          -0.724465012550354 -0.506650984287262 0.4673910140991211 -0.9607759714126587 -0.24658000469207764 0.1269180029630661
          -0.9794380068778992 -0.12184099853038788 -0.16079699993133545 -0.9845979809761047 -0.15314200520515442 0.08435200154781342
          -0.9713349938392639 -0.17866100370883942 0.15680499374866486 -0.864657998085022 -0.3534649908542633 0.35697200894355774
          -0.9185460209846497 -0.26863399147987366 0.29001501202583313 -0.6078649759292603 -0.6727219820022583 0.4218359887599945
          -0.3068690001964569 -0.9515889883041382 0.017618000507354736 -0.29594600200653076 -0.9525970220565796 0.07053399831056595
          -0.4458310008049011 -0.8494539856910706 0.28224700689315796 -0.7469159960746765 -0.3856930136680603 0.5416240096092224
          -0.3477970063686371 -0.9374780058860779 -0.013120999559760094 -0.4039739966392517 -0.9027220010757446 -0.14798299968242645
          -0.3434779942035675 -0.8500819802284241 -0.3992300033569336 -0.5548310279846191 -0.766182005405426 -0.3242340087890625
          -0.7182819843292236 -0.613756000995636 -0.3276810050010681 -0.578236997127533 -0.6745579838752747 -0.4589270055294037
          -0.7907170057296753 -0.4944339990615845 -0.36097198724746704 -0.8534500002861023 -0.35315999388694763 -0.38327598571777344
          -0.8176929950714111 -0.27718499302864075 -0.5045269727706909 -0.7893959879875183 -0.3966749906539917 -0.46851199865341187
          -0.8442109823226929 -0.3159169852733612 -0.4330179989337921 -0.7987359762191772 -0.2983910143375397 0.5224779844284058
          -0.7634400129318237 -0.356783002614975 0.5383909940719604 -0.761389970779419 -0.3022570013999939 0.5735200047492981
          -0.7323020100593567 -0.4072340130805969 0.5457980036735535 -0.7212010025978088 -0.41105300188064575 0.5575889945030212
          -0.7324590086936951 -0.41462600231170654 0.5399900078773499 -0.6572660207748413 -0.3665420114994049 0.658519983291626
          -0.7115560173988342 -0.16734500229358673 -0.6824110150337219 -0.7916079759597778 -0.22214099764823914 -0.5692189931869507
          -0.8945639729499817 -0.22646500170230865 -0.38531601428985596 -0.518733024597168 -0.3093720078468323 0.7969980239868164
          -0.6900309920310974 -0.4509289860725403 0.5661439895629883 -0.5986279845237732 -0.42440399527549744 0.6793569922447205
          -0.8495339751243591 -0.37528499960899353 0.370745986700058 -0.8120179772377014 -0.3653869926929474 0.4551039934158325
          -0.802636981010437 -0.0712679997086525 -0.5921949744224548 -0.9044589996337891 0.11189699918031693 -0.4116230010986328
          -0.9970510005950928 0.04987899959087372 -0.05831800028681755 -0.9867720007896423 0.04797599837183952 -0.1548510044813156
          -0.9956439733505249 0.035096000880002975 -0.08638399839401245 -0.9888970255851746 -0.07305300235748291 0.12940600514411926
          -0.9663569927215576 -0.079135000705719 0.2447279989719391 -0.9687650203704834 -0.10740300267934799 0.22351400554180145
          -0.5551030039787292 -0.6889209747314453 0.46609899401664734 -0.6422479748725891 -0.575543999671936 0.5062270164489746
          -0.08777199685573578 -0.9652940034866333 -0.24597600102424622 -0.19767700135707855 -0.9160829782485962 -0.34887900948524475
          -0.10944800078868866 -0.9927669763565063 -0.04935299977660179 -0.2370530068874359 -0.9395549893379211 0.24706600606441498
          -0.16102199256420135 -0.9840030074119568 0.07622800022363663 -0.4621410071849823 -0.7779309749603271 0.4257340133190155
          -0.164124995470047 -0.7872269749641418 -0.5944210290908813 -0.34697699546813965 -0.7194979786872864 -0.6016070246696472
          -0.6504909992218018 -0.5981259942054749 -0.4680890142917633 -0.5803179740905762 -0.498852014541626 -0.6437219977378845
          -0.41478100419044495 -0.5981289744377136 -0.6857100129127502 -0.7838109731674194 -0.2043209969997406 -0.5864239931106567
          -0.6709100008010864 -0.223812997341156 -0.7069560289382935 -0.7252010107040405 -0.14656099677085876 -0.6727579832077026
          -0.6589670181274414 -0.09963399916887283 -0.7455440163612366 -0.6997650265693665 -0.34158799052238464 -0.6274129748344421
          -0.7403669953346252 -0.29598599672317505 -0.6035299897193909 -0.7034909725189209 -0.19112299382686615 0.6845239996910095
          -0.4963679909706116 -0.4296799898147583 0.754315972328186 -0.566851019859314 -0.32179999351501465 0.7583699822425842
          -0.6938719749450684 -0.25279998779296875 0.6742650270462036 -0.647121012210846 -0.4535520076751709 0.6128000020980835
          -0.6223829984664917 -0.547652006149292 0.559211015701294 -0.6281960010528564 -0.5479199886322021 0.5524070262908936
          -0.6263359785079956 -0.5704060196876526 0.5313569903373718 -0.46382299065589905 -0.6282979846000671 0.6245880126953125
          -0.5392749905586243 -0.2011830061674118 0.8177459836006165 -0.5931599736213684 -0.2703250050544739 0.7583439946174622
          -0.6293410062789917 -0.005549000110477209 -0.7771099805831909 -0.5401729941368103 0.19021600484848022 -0.8197749853134155
          -0.43901699781417847 -0.07693400233983994 0.8951789736747742 -0.5742470026016235 -0.3191930055618286 0.7538939714431763
          -0.4028399884700775 -0.07216300070285797 0.9124209880828857 -0.35498499870300293 -0.039163000881671906 0.934050977230072
          -0.5964900255203247 -0.14520399272441864 0.7893760204315186 -0.7269279956817627 -0.29050201177597046 0.6222419738769531
          -0.9250109791755676 -0.149057999253273 0.349480003118515 -0.8728359937667847 -0.1169930025935173 0.4737829864025116
          -0.688135027885437 0.10296499729156494 -0.7182400226593018 -0.9120190143585205 0.20834499597549438 -0.35328999161720276
          -0.7035580277442932 0.2706109881401062 -0.6570960283279419 -0.9561570286750793 0.09619999676942825 -0.2766039967536926
          -0.9991340041160583 0.04159700125455856 -0.0007730000070296228 -0.9515150189399719 0.03182699903845787 0.30595099925994873
          -0.9799680113792419 -0.020135000348091125 0.19813500344753265 -0.9805999994277954 -0.0459819994866848 -0.19054999947547913
          -0.10755100101232529 -0.8146700263023376 -0.5698639750480652 0.04188999906182289 -0.8908640146255493 -0.4523339867591858
          0.055463001132011414 -0.9834349751472473 -0.1725659966468811 -0.1037909984588623 -0.8101670145988464 -0.5769379734992981
          -0.0017320000333711505 -0.9961199760437012 0.08798299729824066 -0.07609199732542038 -0.9511600136756897 0.2991740107536316
          -0.160289004445076 -0.8976600170135498 0.410504013299942 -0.4615429937839508 -0.7119809985160828 0.5292080044746399
          -0.0971750020980835 -0.6567530035972595 -0.7478179931640625 -0.035805001854896545 -0.7151719927787781 -0.6980299949645996
          -0.15728500485420227 -0.638060986995697 -0.7537509799003601 -0.20565800368785858 -0.5785459876060486 -0.7892969846725464
          -0.2863050103187561 -0.48364800214767456 -0.8271120190620422 -0.4466080069541931 -0.3501720130443573 -0.823360025882721
          -0.5086169838905334 -0.2975429892539978 -0.8079460263252258 -0.3553580045700073 -0.12073200196027756 -0.9269000291824341
          -0.34347298741340637 -0.22438499331474304 -0.9119639992713928 -0.5938699841499329 -0.0008870000019669533 -0.8045610189437866
          -0.454120010137558 0.00989800039678812 -0.8908849954605103 -0.5398880243301392 -0.19255299866199493 0.8194169998168945
          -0.38101398944854736 -0.18273499608039856 0.9063310027122498 -0.35095399618148804 -0.4047830104827881 0.8443830013275146
          -0.3717670142650604 -0.6003860235214233 0.7080439925193787 -0.19158799946308136 -0.5844420194625854 0.7884929776191711
          -0.33860498666763306 -0.2944380044937134 0.8936740159988403 -0.23165999352931976 -0.8056820034980774 0.5451700091362
          -0.1969520002603531 -0.7055879831314087 0.6807019710540771 -0.2764590084552765 -0.6463029980659485 0.7112399935722351
          -0.48191899061203003 -0.16888000071048737 0.8597869873046875 -0.2807199954986572 -0.12749800086021423 0.9512829780578613
          -0.29181501269340515 -0.11035200208425522 0.9500880241394043 -0.3362640142440796 -0.077285997569561 0.9385910034179688
          -0.5144680142402649 0.13406899571418762 -0.8469640016555786 -0.5059319734573364 0.2979240119457245 -0.8094900250434875
          -0.3827579915523529 0.33208900690078735 -0.862097978591919 -0.28994399309158325 0.44342899322509766 -0.848118007183075
          -0.38810598850250244 0.2910099923610687 -0.8744639754295349 -0.34109100699424744 0.4658080041408539 -0.8165040016174316
          -0.15848299860954285 0.02895200066268444 0.9869369864463806 -0.302172988653183 -0.01888200081884861 0.9530659914016724
          -0.2778699994087219 -0.006271000020205975 0.9605979919433594 -0.25844699144363403 0.06086599826812744 0.964106023311615
          -0.22611600160598755 0.04724999889731407 0.9729539752006531 -0.46796301007270813 0.051215000450611115 0.8822630047798157
          -0.3771139979362488 0.04631400108337402 0.9250079989433289 -0.708778977394104 -0.016087999567389488 0.7052469849586487
          -0.8892800211906433 0.030837999656796455 0.4563220143318176 -0.8395450115203857 0.010122000239789486 0.5431960225105286
          -0.8076710104942322 0.21902599930763245 -0.5474439859390259 -0.5463730096817017 0.34198999404907227 -0.7645390033721924
          -0.9544349908828735 0.0021089999936521053 -0.29840999841690063 -0.8515589833259583 0.04453599825501442 -0.522363007068634
          -0.9122779965400696 0.0052720000967383385 0.4095369875431061 0.8480809926986694 0.08298800140619278 0.5233269929885864
          -0.9630110263824463 -0.06563899666070938 0.2613460123538971 -0.9897300004959106 -0.14294299483299255 0.0010839999886229634
          -0.9119369983673096 -0.187376007437706 -0.3650510013103485 -0.877282977104187 -0.14949700236320496 -0.4560970067977905
          -0.8081880211830139 -0.08543100208044052 -0.5826950073242188 -0.8796889781951904 0.007954999804496765 -0.4754830002784729
          0.10565300285816193 -0.7740619778633118 -0.6242309808731079 0.15430699288845062 -0.937171995639801 -0.31288498640060425
          0.19756199419498444 -0.9790610074996948 -0.04908199980854988 0.3796199858188629 -0.9145910143852234 0.13933099806308746
          0.11051300168037415 -0.9270579814910889 0.35826098918914795 0.03717600181698799 -0.8622530102729797 0.5051119923591614
          -0.05281800031661987 -0.5670260190963745 -0.8220040202140808 0.13535700738430023 -0.5764060020446777 -0.8058750033378601
          -0.0228240005671978 -0.48256099224090576 -0.8755649924278259 -0.1685120016336441 -0.37808001041412354 -0.9103080034255981
          -0.2498060017824173 -0.30808499455451965 -0.9179760217666626 -0.09042099863290787 -0.24192500114440918 -0.9660729765892029
          -0.0978270024061203 -0.12777499854564667 -0.9869670271873474 -0.2812590003013611 -0.09304700046777725 -0.9551100134849548
          -0.4967209994792938 0.18535999953746796 -0.8478860259056091 -0.24287299811840057 -0.0132039999589324 -0.9699680209159851
          -0.41310301423072815 0.15879599750041962 -0.8967329859733582 -0.07834599912166595 -0.33391401171684265 0.9393420219421387
          -0.11470899730920792 -0.16071200370788574 0.9803130030632019 -0.19392499327659607 -0.40725600719451904 0.8924880027770996
          0.09919299930334091 -0.6934239864349365 0.7136690020561218 0.05631199851632118 -0.5561929941177368 0.8291429877281189
          -0.12939700484275818 -0.10347600281238556 0.986178994178772 0.08154600113630295 -0.07671499997377396 0.9937130212783813
          0.09975799918174744 -0.059487998485565186 0.993232011795044 -0.16171400249004364 -0.023628000169992447 0.9865549802780151
          -0.3966580033302307 0.2971020042896271 -0.8685579895973206 -0.2443300038576126 0.27055999636650085 -0.9311820268630981
          -0.30742600560188293 0.14232900738716125 -0.940867006778717 -0.44735899567604065 0.14517900347709656 -0.8824920058250427
          -0.5999420285224915 0.19634400308132172 -0.7755759954452515 -0.2051679939031601 0.5200669765472412 -0.829118013381958
          -0.26270198822021484 0.47843700647354126 -0.837906002998352 0.16283300518989563 0.019593000411987305 0.9864590167999268
          0.07987400144338608 0.10583200305700302 0.9911710023880005 -0.07343000173568726 0.07690700143575668 0.9943310022354126
          -0.033984001725912094 0.019579000771045685 0.9992309808731079 -0.028480999171733856 0.010405000299215317 0.9995399713516235
          -0.2366359978914261 -0.011766999959945679 0.9715269804000854 -0.3190540075302124 0.011080999858677387 0.9476720094680786
          -0.5508340001106262 0.07890599966049194 0.8308770060539246 -0.5954930186271667 -0.10961499810218811 0.7958469986915588
          -0.617235004901886 0.014837999828159809 0.7866389751434326 -0.3704040050506592 0.00828499998897314 0.9288340210914612
          -0.41009700298309326 -0.06760700047016144 0.9095330238342285 -0.86947101354599 0.0007329999934881926 0.49398401379585266
          0.9842280149459839 0.021942999213933945 0.17553600668907166 -0.9000970125198364 -0.036035001277923584 0.43419700860977173
          -0.7824289798736572 -0.00812700018286705 0.6226869821548462 -0.7003059983253479 0.012160999700427055 -0.7137389779090881
          -0.6554080247879028 -0.12361100316047668 0.7450910210609436 -0.9733030200004578 -0.14901599287986755 0.1745699942111969
          -0.9272350072860718 -0.15214599668979645 0.34217798709869385 -0.9718739986419678 -0.16930000483989716 0.16370399296283722
          -0.9636669754981995 -0.26141101121902466 -0.05486699938774109 -0.7645859718322754 -0.17475399374961853 -0.6203780174255371
          -0.8364199995994568 -0.2607850134372711 -0.48207199573516846 -0.6070740222930908 -0.10767199844121933 -0.7873169779777527
          0.2584109902381897 -0.7591170072555542 -0.5974649786949158 0.2185640037059784 -0.6328099966049194 -0.7428200244903564
          0.3451249897480011 -0.9124990105628967 -0.21962499618530273 0.321494996547699 -0.8499910235404968 -0.41732001304626465
          0.4376299977302551 -0.8835660219192505 -0.16670599579811096 0.5081030130386353 -0.7915520071983337 0.3395250141620636
          0.3994309902191162 -0.8174750208854675 0.41495800018310547 0.6017339825630188 -0.7925860285758972 0.09860999882221222
          0.31105101108551025 -0.8130930066108704 0.4920639991760254 0.17476999759674072 -0.7872959971427917 0.5912870168685913
          0.15034300088882446 -0.583745002746582 -0.7978969812393188 0.16958999633789062 -0.4734709858894348 -0.8643289804458618
          -0.04093300178647041 -0.3706290125846863 -0.9278789758682251 0.11429399996995926 -0.3661249876022339 -0.923520028591156
          0.12292200326919556 -0.26482099294662476 -0.956430971622467 0.11634299904108047 -0.19198699295520782 -0.9744769930839539
          -0.001626000041142106 0.007207999937236309 -0.9999729990959167 -0.36928701400756836 0.36934399604797363 -0.8527669906616211
          -0.43568599224090576 0.36507898569107056 -0.8227360248565674 -0.25049901008605957 0.1744309961795807 -0.9522730112075806
          -0.15808099508285522 0.07018300145864487 -0.9849290251731873 0.25786900520324707 -0.45929399132728577 0.8500310182571411
          0.1596910059452057 -0.3260050117969513 0.9317830204963684 0.03830699995160103 -0.14036500453948975 0.9893590211868286
          0.04770100116729736 -0.2313860058784485 0.9716920256614685 0.25750601291656494 -0.6193249821662903 0.7417050004005432
          0.3604249954223633 -0.6691610217094421 0.6498590111732483 0.3302589952945709 -0.587244987487793 0.7389670014381409
          0.8299369812011719 -0.029169000685214996 0.5570949912071228 -0.07125700265169144 -0.07364799827337265 0.9947350025177002
          0.5841289758682251 -0.03587900102138519 0.8108680248260498 0.9478740096092224 -0.025131000205874443 0.317654013633728
          -0.3569589853286743 0.522678017616272 -0.7742019891738892 -0.24903400242328644 0.2923629879951477 -0.9233120083808899
          -0.3240559995174408 0.36367499828338623 -0.8733429908752441 -0.34589698910713196 0.2284889966249466 -0.9100260138511658
          -0.22673399746418 -0.013224000111222267 -0.9738669991493225 -0.32447001338005066 0.12116699665784836 -0.9381030201911926
          -0.3940019905567169 -0.0713379979133606 -0.9163370132446289 -0.5339109897613525 0.06586699932813644 -0.8429710268974304
          -0.26282998919487 0.5208730101585388 -0.8121650218963623 -0.2829580008983612 0.621612012386322 -0.730434000492096
          0.1786690056324005 0.09465499967336655 0.979345977306366 0.03614699840545654 0.012738999910652637 0.9992650151252747
          0.09664800018072128 0.059021998196840286 0.9935669898986816 0.12979799509048462 0.04387500137090683 0.990568995475769
          0.14521299302577972 0.014268999919295311 0.9892979860305786 0.19212999939918518 0.08078599721193314 0.978039026260376
          0.09805099666118622 0.0958859995007515 0.9905509948730469 -0.10995599627494812 0.006506999954581261 0.9939150214195251
          -0.3516089916229248 -0.010060999542474747 0.9360929727554321 -0.2568260133266449 -0.017622999846935272 0.9662969708442688
          -0.7945410013198853 -0.09990499913692474 0.5989350080490112 -0.4743269979953766 -0.10355699807405472 0.8742370009422302
          -0.6271039843559265 -0.12474299967288971 0.7688819766044617 -0.7324399948120117 -0.1650409996509552 0.6605250239372253
          -0.30460500717163086 -0.05117899924516678 0.9511029720306396 -0.30807799100875854 -0.06250400096178055 0.9493060111999512
          -0.9704089760780334 -0.19115599989891052 0.14753100275993347 -0.8442140221595764 -0.30302199721336365 0.44213199615478516
          -0.9252550005912781 -0.36519598960876465 0.10264299809932709 -0.883653998374939 -0.30146801471710205 -0.35815200209617615
          -0.6697310209274292 -0.25049901008605957 -0.6990789771080017 -0.6064509749412537 -0.2148289978504181 -0.7655490040779114
          -0.7460070252418518 -0.25547000765800476 -0.614986002445221 -0.5152170062065125 -0.19906699657440186 -0.8336210250854492
          0.4057219922542572 -0.7190510034561157 -0.5642300248146057 0.36243200302124023 -0.6047719717025757 -0.709151029586792
          0.5052539706230164 -0.8086850047111511 -0.301241010427475 0.5664889812469482 -0.7663949728012085 0.3028680086135864
          0.46458199620246887 -0.7545310258865356 0.4635150134563446 0.6371229887008667 -0.6943789720535278 0.3345330059528351
          0.5872899889945984 -0.6549760103225708 0.4754970073699951 0.63373202085495 -0.76077800989151 0.14000500738620758
          0.6015650033950806 -0.766493022441864 -0.22495999932289124 0.07996699959039688 -0.4758700132369995 -0.8758730292320251
          0.29528701305389404 -0.5679330229759216 -0.7682819962501526 0.04690000042319298 -0.5757439732551575 -0.8162840008735657
          0.21790200471878052 -0.2976759970188141 -0.9294660091400146 -0.0022509999107569456 -0.08068899810314178 -0.996737003326416
          -0.1173200011253357 -0.26038500666618347 -0.9583500027656555 0.06061200052499771 -0.3232229948043823 -0.944379985332489
          -0.03742099925875664 0.17128999531269073 -0.9845100045204163 0.029019000008702278 -0.011761999689042568 -0.9995099902153015
          -0.10555099695920944 0.22552600502967834 -0.9685019850730896 -0.21786700189113617 0.27287399768829346 -0.9370560050010681
          -0.24675199389457703 0.41965800523757935 -0.8734989762306213 -0.19473500549793243 0.22098399698734283 -0.9556379914283752
          0.4228909909725189 -0.4282490015029907 0.7986029982566833 0.24233099818229675 -0.3237060010433197 0.9145979881286621
          0.23725900053977966 -0.27302199602127075 0.9322909712791443 -0.0055740000680089 -0.05953500047326088 0.9982110261917114
          0.45043298602104187 -0.568461000919342 0.6884490251541138 0.5371890068054199 -0.5052800178527832 0.675366997718811
          -0.31473198533058167 0.5725709795951843 -0.7570379972457886 -0.36851298809051514 0.5587930083274841 -0.7429320216178894
          -0.3919300138950348 0.35874900221824646 -0.8471660017967224 -0.38215699791908264 0.3435179889202118 -0.8578760027885437
          -0.19187000393867493 0.19485199451446533 -0.961883008480072 -0.09637799859046936 -0.006384000182151794 -0.9953240156173706
          -0.21296599507331848 -0.12539200484752655 -0.9689800143241882 -0.39601999521255493 -0.19669200479984283 -0.8969290256500244
          0.18632100522518158 0.017582999542355537 0.9823319911956787 0.4137539863586426 0.0071310000494122505 0.9103609919548035
          0.4148789942264557 0.014407999813556671 0.909762978553772 0.2495570033788681 0.12301299721002579 0.960515022277832
          0.24004000425338745 0.07438600063323975 0.9679089784622192 0.13429899513721466 -0.06797699630260468 0.9886069893836975
          0.26783400774002075 0.06889499723911285 0.9609990119934082 0.28159600496292114 0.053846001625061035 0.9580209851264954
          0.2630229890346527 0.1303820013999939 0.955938994884491 0.3893339931964874 0.12643499672412872 0.9123780131340027
          -0.0178810004144907 0.04262800142168999 0.9989309906959534 0.11642000079154968 0.1006070002913475 0.9880920052528381
          -0.13655999302864075 0.024150000885128975 0.9903370141983032 -0.4334140121936798 -0.0396759994328022 0.9003210067749023
          -0.5733399987220764 -0.1082950010895729 0.812129020690918 -0.3510519862174988 -0.03401299938559532 0.9357380270957947
          -0.33531200885772705 -0.0229909997433424 0.9418269991874695 -0.6667109727859497 -0.16439099609851837 0.7269610166549683
          -0.18800300359725952 0.02607000060379505 0.9818220138549805 -0.9050099849700928 -0.38715600967407227 0.17625999450683594
          -0.863086998462677 -0.38020598888397217 0.3324509859085083 -0.7831770181655884 -0.2747020125389099 0.5578290224075317
          -0.6350259780883789 -0.20660400390625 0.744350016117096 -0.9306139945983887 -0.3536889851093292 -0.0941379964351654
          -0.7083780169487 -0.23130500316619873 -0.6668570041656494 -0.8884379863739014 -0.33217400312423706 -0.3167620003223419
          -0.8076779842376709 -0.2958590090274811 -0.5100240111351013 -0.4566819965839386 -0.25159698724746704 -0.8533120155334473
          -0.46637898683547974 -0.23966899514198303 -0.851498007774353 -0.5545600056648254 -0.22521600127220154 -0.8010879755020142
          0.5251910090446472 -0.6778659820556641 -0.5144630074501038 0.4694719910621643 -0.6843010187149048 -0.557968020439148
          0.6287059783935547 -0.5456730127334595 0.554049015045166 0.5429440140724182 -0.7364829778671265 0.40348899364471436
          0.48716700077056885 -0.8519440293312073 0.191988006234169 0.4156779944896698 -0.8884680271148682 -0.19451799988746643
          0.45997101068496704 -0.886381983757019 -0.0524739995598793 0.42725199460983276 -0.8335850238800049 -0.35012999176979065
          0.2639940083026886 -0.3997179865837097 -0.8777999877929688 0.2191929966211319 -0.7836130261421204 -0.5812960267066956
          0.19643600285053253 -0.4373590052127838 -0.8775709867477417 0.12157099694013596 -0.65065598487854 -0.7495779991149902
          0.14684699475765228 -0.3475629985332489 -0.9260870218276978 -0.275081992149353 -0.1774349957704544 -0.9449059963226318
          -0.13220199942588806 0.027157999575138092 -0.9908509850502014 -0.49030598998069763 -0.13386200368404388 -0.861208975315094
          -0.22243399918079376 -0.37859898805618286 -0.8984349966049194 -0.3432390093803406 -0.3304559886455536 -0.8791959881782532
          0.017083000391721725 -0.45655301213264465 -0.8895320296287537 -0.219310000538826 -0.4040760099887848 -0.8880460262298584
          -0.1013529971241951 0.26593801379203796 -0.9586470127105713 -0.15707999467849731 0.4276460111141205 -0.8901939988136292
          0.47567498683929443 -0.38711100816726685 0.7898600101470947 0.5880110263824463 -0.4109930098056793 0.6966549754142761
          0.3794980049133301 -0.3343830108642578 0.8626520037651062 0.343313992023468 -0.19323499500751495 0.9191280007362366
          -0.2862910032272339 0.543304979801178 -0.7892130017280579 -0.37064701318740845 0.5659649968147278 -0.7364140152931213
          -0.32040300965309143 0.4861370027065277 -0.813027024269104 -0.12810499966144562 0.3314160108566284 -0.9347469806671143
          -0.203125 0.41444799304008484 -0.8871150016784668 -0.07652200013399124 0.1495549976825714 -0.9857879877090454
          -0.010967999696731567 -0.03083699941635132 -0.9994639754295349 -0.12272299826145172 -0.17635199427604675 -0.9766470193862915
          -0.28118300437927246 -0.20660799741744995 -0.9371500015258789 -0.4448130130767822 -0.22073300182819366 -0.8679969906806946
          0.406497985124588 -0.10494200140237808 0.907604992389679 0.6017360091209412 -0.09745299816131592 0.792726993560791
          0.5371649861335754 -0.12625299394130707 0.8339750170707703 0.42052599787712097 -0.21783100068569183 0.8807430267333984
          0.28123700618743896 -0.1863269954919815 0.9413759708404541 0.25475001335144043 0.0690929964184761 0.9645349979400635
          0.17111200094223022 0.08338099718093872 0.9817169904708862 0.287882000207901 0.11432600021362305 0.9508169889450073
          0.41324201226234436 0.11912400275468826 0.9027959704399109 0.3523930013179779 0.14597900211811066 0.9243969917297363
          0.39657801389694214 0.14250800013542175 0.9068719744682312 0.47522300481796265 0.18240900337696075 0.8607490062713623
          0.546966016292572 0.20337200164794922 0.8120759725570679 0.5212730169296265 0.18220999836921692 0.8337110280990601
          -0.14169000089168549 0.06197100132703781 0.9879689812660217 0.13162900507450104 0.09876099973917007 0.9863669872283936
          -0.41089099645614624 -0.030212000012397766 0.9111840128898621 -0.3554620146751404 -0.002237000036984682 0.9346879720687866
          -0.3148050010204315 0.013147000223398209 0.9490650296211243 -0.5282319784164429 -0.0694430023431778 0.8462560176849365
          -0.6697019934654236 -0.11560899764299393 0.7335759997367859 -0.21831099689006805 0.035388000309467316 0.9752370119094849
          -0.7686470150947571 -0.19246099889278412 0.6100339889526367 -0.9183679819107056 -0.37094399333000183 -0.1378449946641922
          -0.9090049862861633 -0.40678301453590393 0.09075599908828735 -0.8825330138206482 -0.33169201016426086 0.33333998918533325
          -0.5240749716758728 -0.24409499764442444 -0.8159430027008057 -0.5574970245361328 -0.2195259928703308 -0.8006280064582825
          -0.6720460057258606 -0.2556149959564209 -0.6949930191040039 -0.8847299814224243 -0.3869889974594116 -0.2597920000553131
          -0.7721909880638123 -0.36298099160194397 -0.5215039849281311 -0.6948649883270264 -0.35544800758361816 -0.6251559853553772
          0.7556790113449097 -0.16540199518203735 -0.6337119936943054 0.7523239850997925 -0.16992999613285065 -0.6365000009536743
          0.47913500666618347 -0.22706599533557892 -0.8478630185127258 -0.4883140027523041 -0.20648500323295593 -0.8478879928588867
          0.5332319736480713 -0.4354960024356842 0.7252629995346069 0.4507479965686798 -0.6665859818458557 0.5937089920043945
          0.36165300011634827 -0.7842730283737183 0.5041059851646423 0.3125320076942444 -0.8388400077819824 0.4457260072231293
          0.4256190061569214 -0.8998839855194092 0.09517300128936768 0.22151300311088562 -0.9748539924621582 -0.024334000423550606