<?xml version="1.0"?>
<VTKFile type="PolyData" version="0.1" byte_order="LittleEndian" header_type="UInt32" compressor="vtkZLibDataCompressor">
  <PolyData>
    <Piece NumberOfPoints="4113" NumberOfVerts="0" NumberOfLines="0" NumberOfStrips="0" NumberOfPolys="8222">
      <PointData Normals="Normals">
        <DataArray type="Float32" Name="Normals" NumberOfComponents="3" format="ascii" RangeMin="0.9999992425391442" RangeMax="1.00000080899891">
          -0.1828099936246872 -0.6685870289802551 0.720812976360321 -0.14016200602054596 -0.6834400296211243 0.7164250016212463
          -0.0354980006814003 -0.6030049920082092 0.7969480156898499 -0.025408999994397163 -0.6633960008621216 0.7478370070457458
          -0.3011789917945862 -0.7208499908447266 0.6242319941520691 -0.1269029974937439 -0.7587010264396667 0.6389589905738831
          0.046310000121593475 -0.6056230068206787 0.7944030165672302 0.000598000013269484 -0.66730797290802 0.7447819709777832
          0.11831299960613251 -0.5745559930801392 0.8098689913749695 -0.0422229990363121 -0.7530999779701233 0.6565499901771545
          -0.12137600034475327 -0.5024250149726868 0.8560590147972107 0.053672999143600464 -0.457863986492157 0.8874009847640991
          0.06142299994826317 -0.4323590099811554 0.8996070027351379 0.10130299627780914 -0.5129730105400085 0.8524069786071777
          -0.014674999751150608 -0.4113219976425171 0.9113720059394836 0.9431189894676208 -0.1990559995174408 0.2662779986858368
          0.7808110117912292 -0.3695490062236786 0.5037540197372437 -0.3161660134792328 -0.6235650181770325 0.7149860262870789
          -0.2604449987411499 -0.794743001461029 0.5482270121574402 -0.43625399470329285 -0.7452120184898376 0.5043230056762695
          -0.4550360143184662 -0.653219997882843 0.6051819920539856 -0.6196960210800171 -0.6655629873275757 0.4159359931945801
          -0.16952799260616302 -0.8276690244674683 0.5349990129470825 0.5873839855194092 -0.522271990776062 0.6182330250740051
          -0.25593701004981995 -0.5704929828643799 0.7804059982299805 0.12289399653673172 -0.7399640083312988 0.6613249778747559
          -0.00774300005286932 -0.7560279965400696 0.6544939875602722 0.2752549946308136 -0.6650360226631165 0.6942340135574341
          0.2453020066022873 -0.514585018157959 0.8216019868850708 -0.013132000342011452 -0.8241580128669739 0.5662069916725159
          -0.21637900173664093 -0.44484999775886536 0.8690739870071411 -0.30042600631713867 -0.49746501445770264 0.8138009905815125
          -0.10888800024986267 -0.3603230118751526 0.9264510273933411 0.13124999403953552 -0.2898629903793335 0.9480260014533997
          0.1441809982061386 -0.3932900130748749 0.9080389738082886 0.047283999621868134 -0.3029089868068695 0.9518460035324097
          0.1834080070257187 -0.4822719991207123 0.8566070199012756 0.030873000621795654 -0.24685199558734894 0.9685609936714172
          -0.08918800204992294 -0.29029300808906555 0.9527729749679565 -0.14717400074005127 -0.5992010235786438 0.7869549989700317
          -0.35691601037979126 -0.8504660129547119 0.38641899824142456 -0.3919200003147125 -0.7984039783477783 0.4571110010147095
          -0.5975069999694824 -0.710250973701477 0.3721950054168701 -0.697579026222229 -0.6480209827423096 0.30570000410079956
          -0.6598039865493774 -0.5963860154151917 0.4571459889411926 -0.6256750226020813 -0.5181400179862976 0.5831469893455505
          -0.39298000931739807 -0.5569779872894287 0.7316709756851196 -0.7963939905166626 -0.4814859926700592 0.3659619987010956
          -0.8107360005378723 -0.5172610282897949 0.2741299867630005 -0.183120995759964 -0.8508440256118774 0.4924739897251129
          -0.34515100717544556 -0.5378329753875732 0.7691599726676941 0.09531600028276443 -0.8515139818191528 0.5155959725379944
          0.2969070076942444 -0.8080880045890808 0.5087630152702332 0.38727399706840515 -0.7145950198173523 0.5825570225715637
          0.3923789858818054 -0.6632760167121887 0.6372630000114441 0.320127010345459 -0.574059009552002 0.7536410093307495
          0.25253498554229736 -0.3892210125923157 0.8858519792556763 0.41120800375938416 -0.5181949734687805 0.749921977519989
          -0.022679999470710754 -0.9140949845314026 0.4048660099506378 -0.4372209906578064 -0.39772099256515503 0.8066319823265076
          -0.2300650030374527 -0.32607200741767883 0.9169229865074158 -0.49687400460243225 -0.46713998913764954 0.7313669919967651
          0.13182400166988373 -0.17801499366760254 0.9751579761505127 0.20242099463939667 -0.21206200122833252 0.9560629725456238
          0.17665499448776245 -0.17733000218868256 0.9681670069694519 0.22278699278831482 -0.30504798889160156 0.925911009311676
          0.25108999013900757 -0.1596899926662445 0.9546999931335449 -0.01169199962168932 -0.21157899498939514 0.9772909879684448
          0.010706000030040741 -0.1170860007405281 0.9930639863014221 0.0024939998984336853 -0.13236400485038757 0.9911980032920837
          -0.16482199728488922 -0.15284200012683868 0.9744089841842651 -0.24996399879455566 -0.8757370114326477 0.41304200887680054
          -0.41435301303863525 -0.896619975566864 0.15615400671958923 -0.24011600017547607 -0.9366049766540527 0.25517600774765015
          -0.16384099423885345 -0.9389529824256897 0.3025279939174652 -0.4888089895248413 -0.7810720205307007 0.38857799768447876
          -0.6073780059814453 -0.753350019454956 0.2521040141582489 -0.7808330059051514 -0.5844219923019409 0.22079500555992126
          -0.8306739926338196 -0.5143020153045654 0.21324500441551208 -0.8291860222816467 -0.5278639793395996 0.18387700617313385
          -0.6999229788780212 -0.4457719922065735 0.558027982711792 -0.9256200194358826 -0.25761398673057556 0.2772409915924072
          -0.8690239787101746 -0.2645910084247589 0.4180780053138733 -0.9320600032806396 -0.29181399941444397 0.21472999453544617
          -0.1772879958152771 -0.916638970375061 0.3582490086555481 -0.21849000453948975 -0.8958650231361389 0.386896014213562
          0.11531999707221985 -0.9216039776802063 0.370604008436203 0.33284899592399597 -0.8810920119285583 0.33598899841308594
          0.4584150016307831 -0.7951880097389221 0.3969019949436188 0.4058830142021179 -0.751338005065918 0.5203369855880737
          0.4823110103607178 -0.7233020067214966 0.4941760003566742 0.414683997631073 -0.706142008304596 0.573934018611908
          0.4599120020866394 -0.6405140161514282 0.614998996257782 0.3226250112056732 -0.359142005443573 0.8757449984550476
          0.5175120234489441 -0.4028339982032776 0.754921019077301 0.655119001865387 -0.5283330082893372 0.5400769710540771
          0.5521829724311829 -0.6344820261001587 0.5408570170402527 0.060621000826358795 -0.9767130017280579 0.20580899715423584
          -0.06546200066804886 -0.9422469735145569 0.3284580111503601 -0.03951700031757355 -0.9717680215835571 0.2326039969921112
          -0.0007810000097379088 -0.9938330054283142 0.11088100075721741 -0.6396960020065308 -0.37555500864982605 0.670632004737854
          -0.598222017288208 -0.3159489929676056 0.7364140152931213 -0.6635289788246155 -0.3518570065498352 0.6602470278739929
          -0.3481760025024414 -0.2587969899177551 0.9009979963302612 -0.45891499519348145 -0.26123300194740295 0.8492079973220825
          -0.7595769762992859 -0.31769001483917236 0.5675529837608337 0.2746039927005768 -0.11468899995088577 0.9546930193901062
          0.12051799893379211 0.06483399868011475 0.9905920028686523 0.175369992852211 0.07361099869012833 0.9817469716072083
          0.21897800266742706 -0.19071799516677856 0.9569090008735657 0.3105289936065674 -0.2866010069847107 0.9063289761543274
          0.39364001154899597 -0.06431800127029419 0.9170119762420654 0.39726001024246216 -0.026487000286579132 0.9173240065574646
          0.23231199383735657 -0.17229999601840973 0.9572589993476868 0.36214399337768555 -0.07213400304317474 0.9293270111083984
          0.3170450031757355 -0.12745100259780884 0.9398080110549927 0.15762999653816223 -0.0572660006582737 0.9858360290527344
          -0.021606000140309334 -0.07399900257587433 0.9970239996910095 -0.1527390033006668 -0.15414099395275116 0.9761719703674316
          -0.37258198857307434 -0.1529970020055771 0.9153000116348267 -0.3256939947605133 -0.9233540296554565 0.2033260017633438
          -0.33574798703193665 -0.9370759725570679 -0.09571599960327148 -0.20586000382900238 -0.9785799980163574 -0.0013630000175908208
          -0.5052409768104553 -0.8566759824752808 0.10410399734973907 -0.7814720273017883 -0.6086819767951965 0.1371379941701889
          -0.646822988986969 -0.7544260025024414 0.11163000017404556 -0.8857100009918213 -0.4318470060825348 0.17036999762058258
          -0.8663349747657776 -0.4700370132923126 0.16890700161457062 -0.9282180070877075 -0.3354809880256653 0.16082100570201874
          -0.9724730253219604 -0.0010389999952167273 0.23301200568675995 -0.9745990037918091 -0.0201019998639822 0.2230529934167862
          -0.9323430061340332 -0.06787200272083282 0.35514798760414124 -0.9851710200309753 -0.07923000305891037 0.1521880030632019
          -0.21687300503253937 -0.9475070238113403 0.23493799567222595 0.20054100453853607 -0.9491339921951294 0.24274900555610657
          0.46814998984336853 -0.8126170039176941 0.3471139967441559 0.3517880141735077 -0.9284669756889343 0.11913999915122986
          0.6046800017356873 -0.7273139953613281 0.3246169984340668 0.6744710206985474 -0.5993880033493042 0.431071013212204
          0.48227500915527344 -0.6967309713363647 0.5310140252113342 0.716742992401123 -0.36785000562667847 0.5924239754676819
          0.7303270101547241 -0.29069098830223083 0.6181600093841553 0.64752197265625 -0.27223700284957886 0.7117599844932556
          0.5152750015258789 -0.23080000281333923 0.8253620266914368 0.8199779987335205 -0.33260101079940796 0.465846985578537
          0.18268799781799316 -0.9798359870910645 -0.0809049978852272 -0.00991700030863285 -0.9863439798355103 -0.16439899802207947
          -0.7870270013809204 -0.28849801421165466 0.5453050136566162 -0.8254539966583252 -0.24664700031280518 0.507731020450592
          -0.7971109747886658 -0.32537099719047546 0.5086719989776611 -0.7705469727516174 -0.22907300293445587 0.5947960019111633
          -0.6163269877433777 -0.1988140046596527 0.7619799971580505 -0.8887860178947449 -0.2931180000305176 0.3523379862308502
          -0.9306100010871887 -0.12285599857568741 0.34477698802948 0.17314699292182922 0.04175499826669693 0.9840109944343567
          0.10157600045204163 0.19454999268054962 0.9756190180778503 0.17951400578022003 0.22174200415611267 0.9584389925003052
          0.2118770033121109 0.233816996216774 0.9489139914512634 0.17167000472545624 0.09717900305986404 0.9803500175476074
          0.023043999448418617 0.12151599675416946 0.9923220276832581 0.32238999009132385 -0.21768300235271454 0.9212380051612854
          0.6261060237884521 0.026443999260663986 0.7792900204658508 0.6123629808425903 -0.028248000890016556 0.7900720238685608
          0.46051299571990967 -0.10633400082588196 0.8812609910964966 0.5779229998588562 0.009545999579131603 0.8160349726676941
          0.5300229787826538 -0.13534100353717804 0.8371130228042603 0.15033599734306335 -0.13612300157546997 0.9792190194129944
          0.22483199834823608 -0.13647499680519104 0.9647930264472961 -0.10509499907493591 -0.012005000375211239 0.9943900108337402
          -0.08272899687290192 -0.10000599920749664 0.9915419816970825 0.11068499833345413 -0.019732000306248665 0.9936599731445312
          -0.2382580041885376 -0.2832620143890381 0.9289759993553162 -0.4135209918022156 -0.20097200572490692 0.8880379796028137
          0.06543199717998505 -0.11587800085544586 0.9911059737205505 -0.11506599932909012 -0.23612000048160553 0.9648870229721069
          0.03196899965405464 -0.11212500184774399 0.993179976940155 0.0635640025138855 -0.9838950037956238 -0.16706299781799316
          -0.10869000107049942 -0.9389179944992065 -0.3265250027179718 -0.2867090106010437 -0.9376260042190552 -0.19661299884319305
          -0.34740200638771057 -0.9309920072555542 -0.11209999769926071 -0.49437201023101807 -0.8692240118980408 0.006829000078141689
          -0.1426600068807602 -0.9583340287208557 -0.24747499823570251 0.10785499960184097 -0.9565240144729614 -0.27098000049591064
          -0.6850770115852356 -0.7247750163078308 -0.07328800112009048 -0.8152329921722412 -0.5746660232543945 0.07179199904203415
          -0.8788750171661377 -0.4633469879627228 0.11352500319480896 -0.941091001033783 -0.32362300157546997 0.09806100279092789
          -0.9771329760551453 -0.21156999468803406 0.02120799943804741 -0.9402940273284912 -0.24573799967765808 0.23549799621105194
          -0.9874740242958069 -0.10241100192070007 0.12003199756145477 -0.9846760034561157 -0.0056779999285936356 0.17430399358272552
          -0.9950159788131714 -0.01644200086593628 0.09835399687290192 -0.9823020100593567 -0.03966199979186058 0.18305900692939758
          -0.9742410182952881 -0.012101000174880028 0.22518600523471832 0.46904900670051575 -0.8576729893684387 0.2106889933347702
          0.5781469941139221 -0.8071439862251282 0.11943800002336502 0.4576820135116577 -0.8757960200309753 -0.15332399308681488
          0.5337790250778198 -0.84483402967453 -0.03654100000858307 0.6348850131034851 -0.7643120288848877 0.11290500313043594
          0.7288349866867065 -0.6668360233306885 0.15533599257469177 0.7499949932098389 -0.558659017086029 0.35412898659706116
          0.8204479813575745 -0.44452598690986633 0.3595300018787384 0.8735250234603882 -0.3535020053386688 0.334648996591568
          0.8046600222587585 -0.2365490049123764 0.5445799827575684 0.7502930164337158 -0.19801700115203857 0.6307529807090759
          0.7775440216064453 -0.19252599775791168 0.5986310243606567 0.8269929885864258 -0.16094399988651276 0.5386829972267151
          0.7716420292854309 -0.13685999810695648 0.621159017086029 0.7481070160865784 -0.09211400151252747 0.6571540236473083
          0.6947270035743713 -0.12889599800109863 0.7076299786567688 0.7458419799804688 -0.03456199914216995 0.6652259826660156
          0.8754879832267761 -0.31798800826072693 0.36387500166893005 0.9058560132980347 -0.10256800055503845 0.4109799861907959
          0.9034759998321533 -0.21687400341033936 0.36972498893737793 0.04990300163626671 -0.9793909788131714 -0.19571299850940704
          0.06725200265645981 -0.9625149965286255 -0.26275700330734253 0.36873599886894226 -0.8945500254631042 -0.25261300802230835
          0.19905300438404083 -0.9375200271606445 -0.2853649854660034 0.7128919959068298 -0.683771014213562 -0.1556989997625351
          -0.9493860006332397 -0.1791439950466156 0.2580200135707855 -0.9360799789428711 -0.25642699003219604 0.24083200097084045
          -0.907351016998291 -0.17544400691986084 0.3820129930973053 -0.8491929769515991 -0.16896000504493713 0.500324010848999
          -0.6623389720916748 -0.27397599816322327 0.6973119974136353 -0.8142459988594055 -0.24559199810028076 0.5260109901428223
          -0.9737899899482727 -0.22433499991893768 0.037505000829696655 -0.11343999952077866 0.07961100339889526 0.9903500080108643
          -0.01334999967366457 0.07397200167179108 0.9971709847450256 0.1473110020160675 0.09193699806928635 0.9848080277442932
          0.16422699391841888 -0.024111999198794365 0.9861279726028442 0.20890100300312042 0.0025869999080896378 0.9779329895973206
          0.7990520000457764 0.08025000244379044 0.595881998538971 0.780597984790802 0.07338599860668182 0.6207110285758972
          0.7098510265350342 0.022311000153422356 0.7039980292320251 0.6859170198440552 -0.26089298725128174 0.6793019771575928
          0.840802013874054 -0.08465299755334854 0.5346829891204834 0.38569900393486023 -0.19937899708747864 0.9008240103721619
          0.2987309992313385 -0.19219300150871277 0.9347839951515198 0.015607000328600407 -0.11938299983739853 0.9927260279655457
          -0.11655700206756592 -0.021615000441670418 0.9929490089416504 0.2018129974603653 -0.15016299486160278 0.9678440093994141
          -0.015514999628067017 -0.06231600046157837 0.9979360103607178 -0.19542400538921356 -0.08789999783039093 0.9767720103263855
          -0.14889399707317352 -0.10290300101041794 0.9834840297698975 0.2195580005645752 0.014148999936878681 0.9754970073699951
          0.33588099479675293 0.035471998155117035 0.9412360191345215 -0.3678379952907562 -0.3405889868736267 0.8652709722518921
          -0.02649099938571453 -0.1681250035762787 0.9854099750518799 -0.1610029935836792 -0.26691898703575134 0.9501749873161316
          0.13703100383281708 -0.03628399968147278 0.9899020195007324 0.2123430073261261 0.02980099990963936 0.9767410159111023
          0.09452600032091141 -0.03996200114488602 0.9947199821472168 0.8261029720306396 -0.5391550064086914 -0.1639080047607422
          -0.028302999213337898 -0.9780899882316589 -0.20624899864196777 0.7124410271644592 -0.6949809789657593 -0.09710399806499481
          0.05096200108528137 -0.9571369886398315 -0.2851170003414154 0.05040999874472618 -0.9035360217094421 -0.42553699016571045
          -0.10942099988460541 -0.8320289850234985 -0.5438339710235596 0.03500499948859215 -0.829692006111145 -0.557121992111206
          -0.29475098848342896 -0.9061089754104614 -0.3034600019454956 -0.38629400730133057 -0.916674017906189 -0.1023930013179779
          -0.4944390058517456 -0.8598859906196594 -0.12699000537395477 -0.5658239722251892 -0.7505930066108704 -0.34125199913978577
          -0.8138329982757568 -0.5658519864082336 -0.13223899900913239 -0.4677579998970032 -0.818789005279541 -0.332846999168396
          -0.48339998722076416 -0.837253987789154 -0.25559699535369873 -0.8300079703330994 -0.5577219724655151 0.005690000019967556
          -0.9017980098724365 -0.43144699931144714 0.024762000888586044 -0.9402199983596802 -0.29318299889564514 0.17329099774360657
          -0.9872679710388184 -0.1548829972743988 -0.036240000277757645 -0.942762017250061 -0.11134500056505203 0.3143270015716553
          -0.9768949747085571 -0.051649998873472214 0.20738500356674194 -0.9936140179634094 -0.11276999861001968 0.003642000025138259
          -0.9818419814109802 -0.18453800678253174 0.043953001499176025 -0.9782950282096863 -0.17507299780845642 0.11085200309753418
          -0.9498770236968994 0.02231599949300289 0.31182798743247986 -0.9580090045928955 -0.032618001103401184 0.2848759889602661
          -0.9925289750099182 -0.08242599666118622 0.08995100110769272 -0.9832829833030701 0.021505000069737434 0.18081100285053253
          0.5251209735870361 -0.8177700042724609 -0.23558500409126282 0.6446149945259094 -0.7611479759216309 -0.0715939998626709
          0.4405680000782013 -0.8411039710044861 -0.313757985830307 0.7715389728546143 -0.6349830031394958 0.039041999727487564
          0.8378379940986633 -0.49059900641441345 0.23945599794387817 0.842024028301239 -0.40022099018096924 0.3616870045661926
          0.9653880000114441 -0.18073900043964386 0.18804100155830383 0.9784700274467468 -0.1415890008211136 0.15016299486160278
          0.8147410154342651 -0.06286200135946274 0.5764070153236389 0.9079369902610779 0.056623999029397964 0.41526299715042114
          0.9341800212860107 0.0025969999842345715 0.35679200291633606 0.9671469926834106 -0.04655599966645241 0.24991700053215027
          0.8608059883117676 0.10083399713039398 0.4988439977169037 0.9719020128250122 0.011927999556064606 0.23508299887180328
          0.8323050141334534 0.06293299794197083 0.5507329702377319 0.9632409811019897 -0.09146600216627121 0.25259000062942505
          0.9544540047645569 0.06767900288105011 0.29058098793029785 0.29854801297187805 -0.9460160136222839 -0.12618300318717957
          0.27819201350212097 -0.883620023727417 -0.37659600377082825 0.23615999519824982 -0.8689919710159302 -0.4348349869251251
          -0.9731259942054749 -0.19954000413417816 0.11492899805307388 -0.932843029499054 -0.2512100040912628 0.25825899839401245
          -0.7499319911003113 -0.41266000270843506 0.5170230269432068 -0.5316789746284485 -0.41256698966026306 0.7396659851074219
          -0.06778299808502197 -0.1255279928445816 0.9897720217704773 -0.00839999970048666 -0.12132199853658676 0.9925780296325684
          0.04267600178718567 -0.06890500336885452 0.9967100024223328 0.20862199366092682 0.04463500156998634 0.9769769906997681
          0.9016950130462646 0.11795700341463089 0.4159710109233856 0.9262279868125916 0.06002900004386902 0.37215301394462585
          0.8381119966506958 0.03254299983382225 0.5445259809494019 0.8100709915161133 -0.2739369869232178 0.518405020236969
          0.523917019367218 -0.2746720016002655 0.8062670230865479 0.7002279758453369 -0.3079949915409088 0.6440650224685669
          0.9536939859390259 -0.11299800127744675 0.27874499559402466 0.8667479753494263 -0.2574940025806427 0.42713499069213867
          0.1602800041437149 -0.06081699952483177 0.9851959943771362 0.4101029932498932 -0.13321900367736816 0.9022570252418518
          -0.18537500500679016 -0.005419999826699495 0.982653021812439 -0.11980299651622772 0.017419999465346336 0.9926450252532959
          -0.10438799858093262 -0.05521100014448166 0.9930030107498169 -0.24015000462532043 0.0034970000851899385 0.9707289934158325
          -0.2121420055627823 0.006446999963372946 0.9772170186042786 -0.13206599652767181 0.032944999635219574 0.9906929731369019
          -0.15656599402427673 -0.12282200157642365 0.9800009727478027 0.12771999835968018 0.028366999700665474 0.9914050102233887
          -0.13400700688362122 0.03664899989962578 0.9903020262718201 -0.2933579981327057 -0.39016398787498474 0.8727620244026184
          0.1392340064048767 0.08706600219011307 0.98642498254776 -0.04018399864435196 -0.03577600046992302 0.9985520243644714
          -0.19267700612545013 -0.13349899649620056 0.9721390008926392 0.13218599557876587 -0.8733389973640442 -0.4688349962234497
          -0.021452000364661217 -0.7802299857139587 -0.625124990940094 -0.3023050129413605 -0.8281890153884888 -0.4719260036945343
          -0.1675329953432083 -0.7613739967346191 -0.6262919902801514 -0.07416199892759323 -0.754235029220581 -0.6524019837379456
          0.2207230031490326 -0.7684969902038574 -0.6005780100822449 0.03511900082230568 -0.7342150211334229 -0.6780080199241638
          0.041432999074459076 -0.7454059720039368 -0.6653209924697876 0.3325459957122803 -0.6970310211181641 -0.635263979434967
          -0.6581090092658997 -0.613044023513794 -0.43711501359939575 -0.4514180123806 -0.6806439757347107 -0.5770149827003479
          -0.3976840078830719 -0.7971889972686768 -0.454243004322052 -0.929735004901886 -0.36684098839759827 -0.0319489985704422
          -0.8335620164871216 -0.49037399888038635 -0.25437799096107483 -0.9572759866714478 -0.23668399453163147 0.16614100337028503
          -0.9584059715270996 -0.07155799865722656 0.2762939929962158 -0.9673979878425598 -0.06548900157213211 0.24464599788188934
          -0.9747869968414307 -0.2210800051689148 0.030236000195145607 -0.9907090067863464 -0.1358329951763153 0.006653000134974718
          -0.968887984752655 0.027396000921726227 0.24597999453544617 -0.9796640276908875 0.06453700363636017 0.1899850070476532
          -0.9963060021400452 -0.08401300013065338 0.017805000767111778 0.4339829981327057 -0.796163022518158 -0.4216429889202118
          0.5661479830741882 -0.762349009513855 -0.31352999806404114 0.5174919962882996 -0.7539499998092651 -0.40467599034309387
          0.7203670144081116 -0.6873490214347839 -0.09286399930715561 0.7847210168838501 -0.6037920117378235 -0.14016899466514587
          0.7050960063934326 -0.6492720246315002 -0.28510600328445435 0.8735700249671936 -0.480105996131897 0.07983200252056122
          0.8082389831542969 -0.5880270004272461 -0.031206000596284866 0.8899469971656799 -0.3096950054168701 0.3347879946231842
          0.9401460289955139 -0.2790229916572571 0.1956299990415573 0.8966950178146362 -0.28067299723625183 0.34228700399398804
          0.9465510249137878 -0.16773100197315216 0.2755129933357239 0.966090977191925 -0.07644200325012207 0.24662800133228302
          0.9917449951171875 -0.07345899939537048 0.10509800165891647 0.9068480134010315 0.22639200091362 0.3554899990558624
          0.9031710028648376 0.17892999947071075 0.3902119994163513 0.9054700136184692 0.055697001516819 0.420740008354187
          0.9593589901924133 -0.10219799727201462 0.26303398609161377 0.9039480090141296 0.15497800707817078 0.39857199788093567
          0.8803189992904663 0.2235179990530014 0.41842401027679443 0.9665219783782959 -0.05847200006246567 0.24983200430870056
          0.98329097032547 0.00024399999529123306 0.1820410043001175 0.361613005399704 -0.7213460206985474 -0.5906739830970764
          -0.9731280207633972 -0.22470000386238098 0.05031299963593483 -0.9414039850234985 -0.33677399158477783 0.018465999513864517
          -0.8547099828720093 -0.5043540000915527 0.12287300080060959 -0.5463399887084961 -0.5384659767150879 0.6415349841117859
          -0.6897310018539429 -0.5436480045318604 0.4782460033893585 -0.04371900111436844 0.021694999188184738 0.9988080263137817
          0.08817999809980392 0.08985400199890137 0.9920439720153809 0.07481800019741058 0.20551499724388123 0.9757900238037109
          0.9650769829750061 0.08590999990701675 0.24747799336910248 0.9685009717941284 -0.011435999535024166 0.24874800443649292
          0.8802719712257385 -0.3032279908657074 0.36493098735809326 0.7410770058631897 -0.40468698740005493 0.5357549786567688
          0.5994020104408264 -0.32605600357055664 0.7310299873352051 0.8401240110397339 -0.3536350131034851 0.4112600088119507
          0.9175620079040527 -0.23917299509048462 0.3176099956035614 0.970221996307373 -0.1936040073633194 0.14555299282073975
          0.9601150155067444 -0.12454099953174591 0.25033700466156006 0.9942499995231628 0.003306000027805567 0.10703399777412415
          0.9944419860839844 -0.03675200045108795 0.09866400063037872 0.2955879867076874 -0.03898400068283081 0.9545199871063232
          0.23562900722026825 0.02383499965071678 0.9715510010719299 0.0868690013885498 0.10155099630355835 0.9910299777984619
          0.6016659736633301 -0.2864300012588501 0.7456240057945251 0.5354920029640198 -0.12982100248336792 0.8345029950141907
          0.37541499733924866 0.01875399984419346 0.9266669750213623 -0.23733000457286835 0.02653999999165535 0.9710670113563538
          -0.04356599971652031 0.06731200218200684 0.9967799782752991 0.624779999256134 0.0015379999531432986 0.7807989716529846
          -0.07377000153064728 0.04535700008273125 0.9962430000305176 0.6580929756164551 0.02459999918937683 0.7525349855422974
          -0.14146199822425842 0.03800399973988533 0.9892140030860901 -0.34747999906539917 0.06960999965667725 0.9351000189781189
          -0.0919400006532669 0.21112500131130219 0.9731259942054749 -0.34810298681259155 0.04587699845433235 0.9363330006599426
          -0.4337320029735565 -0.4715059995651245 0.7678269743919373 -0.4160650074481964 -0.30852800607681274 0.8553950190544128
          -0.2901029884815216 -0.21934400498867035 0.9315189719200134 0.05628599971532822 0.15697799623012543 0.9859970211982727
          -0.06953399628400803 0.10255099833011627 0.9922940135002136 -0.23680000007152557 -0.026739999651908875 0.9711899757385254
          -0.33132898807525635 -0.7467759847640991 -0.5766689777374268 -0.30609801411628723 -0.6086559891700745 -0.7320129871368408
          -0.18510599434375763 -0.6546689867973328 -0.7329009771347046 -0.0913119986653328 -0.7151020169258118 -0.6930299997329712
          -0.04729500040411949 -0.7919229865074158 -0.6087859869003296 0.781719982624054 -0.4626559913158417 -0.41816699504852295
          0.2960579991340637 -0.7134220004081726 -0.6351209878921509 -0.014615999534726143 -0.7619190216064453 -0.6475080251693726
          0.21309199929237366 -0.6982219815254211 -0.683430016040802 -0.0016680000117048621 -0.63401198387146 -0.7733219861984253
          0.049772001802921295 -0.5875110030174255 -0.8076840043067932 0.8563339710235596 -0.3710629940032959 -0.3591710031032562
          -0.4615660011768341 -0.6064720153808594 -0.6474170088768005 -0.6586769819259644 -0.5344480276107788 -0.5296319723129272
          -0.36663898825645447 -0.5839620232582092 -0.7242680191993713 -0.3803659975528717 -0.5538390278816223 -0.7406650185585022
          -0.38268399238586426 -0.6265310049057007 -0.6789789795875549 -0.950206995010376 -0.3082219958305359 -0.04588799923658371
          -0.8767430186271667 -0.41754600405693054 -0.23869700729846954 -0.9824020266532898 -0.1757739931344986 0.06317099928855896
          -0.98232102394104 -0.1320430040359497 0.13269899785518646 -0.9210079908370972 -0.3838230073451996 -0.06652099639177322
          -0.9104490280151367 -0.40278199315071106 -0.09407100081443787 -0.9705119729042053 -0.2405100017786026 -0.01616399921476841
          -0.9730499982833862 -0.23050899803638458 0.006262999959290028 -0.9529719948768616 -0.02252200059592724 0.30222100019454956
          -0.9692320227622986 -0.03373900055885315 0.2438250035047531 -0.9610710144042969 -0.2610209882259369 0.09061700105667114
          0.46985700726509094 -0.6773639917373657 -0.5660499930381775 0.5886030197143555 -0.6737470030784607 -0.4467790126800537
          0.8899779915809631 -0.45590800046920776 -0.009321000427007675 0.8548049926757812 -0.5016710162162781 -0.13279399275779724
          0.7351779937744141 -0.5992299914360046 -0.3169179856777191 0.8563939929008484 -0.47597700357437134 -0.20008699595928192
          0.8083270192146301 -0.5501109957695007 -0.20972700417041779 0.9411709904670715 -0.3333300054073334 0.05557800084352493
          0.976963996887207 -0.1724569946527481 0.1256980001926422 0.8950690031051636 0.27788299322128296 0.3487580120563507
          0.928409993648529 0.23420999944210052 0.28844600915908813 0.9722999930381775 0.12362799793481827 0.19836699962615967