<?xml version="1.0"?>
<VTKFile type="PolyData" version="0.1" byte_order="LittleEndian" header_type="UInt32" compressor="vtkZLibDataCompressor">
  <PolyData>
    <Piece NumberOfPoints="2838" NumberOfVerts="0" NumberOfLines="0" NumberOfStrips="0" NumberOfPolys="5672">
      <PointData Normals="Normals">
        <DataArray type="Float32" Name="Normals" NumberOfComponents="3" format="ascii" RangeMin="0.9999991927975345" RangeMax="1.0000007885223046">
          -0.3568750023841858 -0.13588599860668182 0.9242159724235535 -0.4976480007171631 -0.14669999480247498 0.8548830151557922
          -0.4367629885673523 -0.262239009141922 0.8605049848556519 -0.20640499889850616 -0.2643280029296875 0.9420869946479797
          -0.5563470125198364 -0.09687899798154831 0.8252829909324646 -0.04217199981212616 -0.17720399796962738 0.983269989490509
          -0.18965500593185425 -0.038686998188495636 0.9810879826545715 -0.2919969856739044 0.0013070000568404794 0.956417977809906
          -0.6340180039405823 -0.1131099984049797 0.7650020122528076 -0.18484899401664734 -0.40206998586654663 0.8967559933662415
          -0.4710110127925873 -0.33334800601005554 0.8167179822921753 -0.619189977645874 -0.20799699425697327 0.7571930289268494
          0.011625999584794044 -0.33114200830459595 0.9435089826583862 -0.7874510288238525 -0.10479599982500076 0.6074029803276062
          -0.6763349771499634 -0.16087700426578522 0.7188109755516052 -0.7774459719657898 -0.2230670005083084 0.5880640149116516
          -0.46373599767684937 -0.05324200168251991 0.8843719959259033 0.13982699811458588 -0.07711300253868103 0.9871690273284912
          0.2257629930973053 -0.2576049864292145 0.9395049810409546 0.19518400728702545 -0.17079900205135345 0.9657800197601318
          -0.005295999813824892 0.05249699950218201 0.9986069798469543 -0.030717000365257263 0.08011399954557419 0.9963120222091675
          -0.1677830070257187 0.06639199703931808 0.9835860133171082 -0.2786389887332916 0.02830900065600872 0.9599789977073669
          -0.8045349717140198 -0.09668800234794617 0.5859829783439636 -0.11680799722671509 -0.5007749795913696 0.8576599955558777
          0.08692900091409683 -0.46349000930786133 0.8818280100822449 -0.40716099739074707 -0.42905500531196594 0.8063070178031921
          -0.5599009990692139 -0.28019899129867554 0.7797430157661438 -0.6606850028038025 -0.21097999811172485 0.7204040288925171
          -0.7376189827919006 -0.18672199547290802 0.6488850116729736 0.24813100695610046 -0.3846360146999359 0.8890929818153381
          -0.8835219740867615 -0.19751900434494019 0.42470601201057434 -0.7319269776344299 -0.20309799909591675 0.6504110097885132
          -0.601498007774353 -0.08009500056505203 0.7948489785194397 -0.8239060044288635 -0.28525200486183167 0.4897040128707886
          -0.8017699718475342 -0.19361400604248047 0.565401017665863 -0.36619800329208374 0.03671099990606308 0.929813027381897
          0.3353379964828491 -0.17827999591827393 0.9250760078430176 0.17462000250816345 0.022106999531388283 0.984387993812561
          0.35462498664855957 -0.14422599971294403 0.9238179922103882 0.4005829989910126 -0.29980799555778503 0.865822970867157
          0.03644400089979172 -0.008344000205397606 0.999301016330719 -0.023426000028848648 0.036727000027894974 0.9990509748458862
          -0.19301900267601013 0.0006089999806135893 0.9811949729919434 -0.4878770112991333 -0.011768000200390816 0.8728330135345459
          -0.8576210141181946 -0.05807099863886833 0.510994017124176 -0.9211900234222412 -0.04800400137901306 0.38613998889923096
          0.8298460245132446 -0.3429029881954193 0.4401960074901581 0.2663609981536865 -0.56358402967453 0.7819370031356812
          -0.0032760000322014093 -0.5294470191001892 0.8483359813690186 0.29708999395370483 -0.44909098744392395 0.8426480293273926
          -0.4146060049533844 -0.4763210117816925 0.7753840088844299 -0.5746369957923889 -0.39094701409339905 0.7189940214157104
          -0.6555950045585632 -0.38479799032211304 0.6497120261192322 -0.8802199959754944 -0.2182130068540573 0.42142000794410706
          -0.9099460244178772 -0.08672700077295303 0.4055570065975189 -0.909371018409729 -0.11576700210571289 0.39955198764801025
          -0.8757209777832031 -0.32276201248168945 0.3590790033340454 -0.8309980034828186 -0.3093459904193878 0.4623290002346039
          -0.8825010061264038 -0.20250099897384644 0.42448198795318604 -0.7160170078277588 -0.1292870044708252 0.6860060095787048
          -0.5880320072174072 0.007915999740362167 0.8087990283966064 -0.8574979901313782 -0.29749199748039246 0.41975700855255127
          -0.753715991973877 -0.0849670022726059 0.6516839861869812 -0.7430170178413391 -0.045430999249219894 0.6677290201187134
          -0.7500470280647278 -0.01648700051009655 0.6611790060997009 -0.8082749843597412 -0.123539999127388 0.5756999850273132
          0.2532149851322174 -0.1575459986925125 0.9544950127601624 0.29786500334739685 -0.4929620027542114 0.8174750208854675
          0.19929200410842896 -0.38702499866485596 0.9002749919891357 -0.03220599889755249 -0.10956700146198273 0.993457019329071
          -0.05654799938201904 -0.020526999607682228 0.9981889724731445 -0.11946800351142883 -0.03210199996829033 0.9923189878463745
          -0.03825100138783455 -0.03415299952030182 0.9986839890480042 -0.050491999834775925 -0.029937999323010445 0.9982759952545166
          -0.07507400214672089 -0.04550499841570854 0.9961389899253845 -0.1042260006070137 -0.04437899962067604 0.9935629963874817
          -0.3124609887599945 -0.042148999869823456 0.9489949941635132 -0.61838299036026 0.05122099816799164 0.784205973148346
          -0.5348179936408997 -0.10964400321245193 0.8378229737281799 -0.69725501537323 -0.10971199721097946 0.7083780169487
          -0.7087540030479431 -0.11812400072813034 0.6954950094223022 -0.6803619861602783 0.002463999902829528 0.7328720092773438
          0.8422830104827881 -0.31367599964141846 0.4383690059185028 0.7014740109443665 -0.4198729991912842 0.5758829712867737
          0.22571200132369995 -0.6860190033912659 0.6916880011558533 0.13975399732589722 -0.5803499817848206 0.8022860288619995
          0.32027900218963623 -0.5778130292892456 0.7507020235061646 -0.1518940031528473 -0.6125609874725342 0.7756909728050232
          -0.25105899572372437 -0.6551960110664368 0.7125219702720642 -0.44546300172805786 -0.5755910277366638 0.6857529878616333
          -0.6887570023536682 -0.4370869994163513 0.578419029712677 -0.8400229811668396 -0.39246898889541626 0.3746050000190735
          -0.9007629752159119 -0.21559999883174896 0.377018004655838 -0.9025880098342896 -0.26046499609947205 0.3427729904651642
          -0.8541269898414612 -0.0774179995059967 0.514270007610321 -0.8635209798812866 -0.12367299944162369 0.48891401290893555
          -0.8551309704780579 -0.321711003780365 0.4065130054950714 -0.8275539875030518 -0.14473100006580353 0.5424079895019531
          -0.8276799917221069 -0.22788000106811523 0.5128509998321533 -0.7112799882888794 -0.03466000035405159 0.7020540237426758
          -0.6798319816589355 0.020098000764846802 0.7330930233001709 -0.9152020215988159 -0.21689799427986145 0.33964699506759644
          -0.8312169909477234 -0.1362210065126419 0.5390009880065918 -0.8564820289611816 0.020052999258041382 0.5157870054244995
          -0.781141996383667 0.023135999217629433 0.623924970626831 0.14485999941825867 -0.36030399799346924 0.9215189814567566
          -0.025860000401735306 -0.31473100185394287 0.9488289952278137 0.37694600224494934 -0.703004002571106 0.603073000907898
          0.3181990087032318 -0.6314939856529236 0.7070819735527039 0.2220969945192337 -0.6711469888687134 0.707273006439209
          0.17930099368095398 -0.599166989326477 0.7802879810333252 0.08214499801397324 -0.6068599820137024 0.7905529737472534
          0.07464800029993057 -0.43834400177001953 0.8957020044326782 -0.12731699645519257 -0.4148299992084503 0.9009479880332947
          -0.1289539933204651 -0.02237899973988533 0.9913979768753052 -0.23901599645614624 -0.22925899922847748 0.9435639977455139
          -0.061400000005960464 0.028889000415802002 0.9976950287818909 0.09894700348377228 0.054333001375198364 0.9936079978942871
          0.06842699646949768 0.03562000021338463 0.9970200061798096 -0.19296999275684357 -0.07800199836492538 0.97809898853302
          -0.07795999944210052 -0.00014699999883305281 0.996957004070282 -0.027142999693751335 -0.049139998853206635 0.9984229803085327
          -0.16524800658226013 -0.06823199987411499 0.9838889837265015 -0.09395799785852432 -0.07384999841451645 0.9928330183029175
          -0.041512999683618546 -0.06407800316810608 0.9970809817314148 -0.12467899918556213 -0.05225899815559387 0.9908199906349182
          -0.2947790026664734 -0.10369600355625153 0.9499229788780212 -0.4253470003604889 -0.09581200033426285 0.8999450206756592
          -0.5436130166053772 -0.08659400045871735 0.8348569869995117 -0.7703660130500793 -0.12795600295066833 0.6246309876441956
          -0.821632981300354 -0.15373200178146362 0.5488960146903992 -0.8004239797592163 -0.07353699952363968 0.5949059724807739
          -0.7771369814872742 -0.12544800341129303 0.6167020201683044 -0.8218600153923035 -0.14331300556659698 0.551367998123169
          -0.8404369950294495 -0.12773700058460236 0.526639997959137 -0.6331149935722351 -0.0805710032582283 0.7698529958724976
          -0.6981710195541382 -0.09612300246953964 0.7094489932060242 0.3534570038318634 -0.5569930076599121 0.751550018787384
          0.03658999875187874 -0.7386519908905029 0.6730939745903015 0.23128199577331543 -0.8178330063819885 0.5269320011138916
          -0.03995700180530548 -0.7857739925384521 0.6172209978103638 -0.21194499731063843 -0.7554069757461548 0.620032012462616
          -0.40948399901390076 -0.6758649945259094 0.6128039956092834 -0.6671339869499207 -0.5408729910850525 0.5122389793395996
          -0.6984289884567261 -0.6774920225143433 0.23065300285816193 -0.8612130284309387 -0.44112399220466614 0.25243300199508667
          -0.764339029788971 -0.5370519757270813 0.35687699913978577 -0.6659169793128967 -0.6312739849090576 0.3975520133972168
          -0.8611479997634888 -0.2875230014324188 0.41923099756240845 -0.8348379731178284 -0.4869849979877472 0.2566939890384674
          -0.8189160227775574 -0.11555600166320801 0.5621600151062012 -0.8662269711494446 -0.08568499982357025 0.4922490119934082
          -0.9034870266914368 -0.15866200625896454 0.39816799759864807 -0.830357015132904 -0.30885401368141174 0.46380600333213806
          -0.8380590081214905 -0.27359500527381897 0.4720200002193451 -0.8837249875068665 -0.22495999932289124 0.41039299964904785
          -0.8567020297050476 -0.2931880056858063 0.4243850111961365 -0.911424994468689 -0.18770800530910492 0.3661560118198395
          -0.9563909769058228 -0.16084399819374084 0.24381500482559204 -0.9027770161628723 -0.05282700061798096 0.4268530011177063
          -0.9634000062942505 -0.007796999998390675 0.2679539918899536 -0.9721189737319946 -0.08736900240182877 0.21760399639606476
          -0.8745599985122681 0.0014720000326633453 0.48491498827934265 -0.9534839987754822 -0.003186000045388937 0.3014279901981354
          0.4383409917354584 -0.7850000262260437 0.4377579987049103 0.38802799582481384 -0.7405930161476135 0.5485950112342834
          0.24517400562763214 -0.7447699904441833 0.6206510066986084 0.1566150039434433 -0.8530480265617371 0.49777600169181824
          -0.05067500099539757 -0.6039249897003174 0.795428991317749 -0.22237199544906616 -0.5046110153198242 0.8342170119285583
          -0.29097700119018555 -0.353767991065979 0.8889210224151611 -0.040160998702049255 0.03029399923980236 0.9987339973449707
          -0.16904200613498688 -0.13703300058841705 0.976036012172699 0.0028029999230057 0.03232499957084656 0.9994739890098572
          0.24917000532150269 0.04369499906897545 0.9674729704856873 0.5062860250473022 0.025679999962449074 0.8619830012321472
          0.26996099948883057 0.060864001512527466 0.9609460234642029 0.21480000019073486 0.10908599942922592 0.9705470204353333
          0.191879004240036 0.08024899661540985 0.9781320095062256 0.041804999113082886 0.0027550000231713057 0.9991220235824585
          0.025241000577807426 -0.030649999156594276 0.9992110133171082 -0.1172569990158081 -0.10455799847841263 0.9875820279121399
          -0.22890600562095642 -0.09495200216770172 0.9688069820404053 -0.25356999039649963 -0.06342600286006927 0.9652360081672668
          -0.4060930013656616 -0.08064399659633636 0.9102669954299927 -0.4707610011100769 -0.07197000086307526 0.8793200254440308
          -0.9155160188674927 -0.12788799405097961 0.38141098618507385 -0.8993809819221497 -0.1896120011806488 0.3939040005207062
          -0.72114497423172 -0.08908099681138992 0.6870329976081848 -0.8407769799232483 -0.09887900203466415 0.5322750210762024
          -0.8196089863777161 -0.13436099886894226 0.5569450259208679 -0.9052109718322754 -0.14999499917030334 0.39761099219322205
          -0.8153290152549744 -0.10172300040721893 0.5699920058250427 -0.6770910024642944 -0.07440599799156189 0.7321280241012573
          -0.6206179857254028 -0.06141800060868263 0.7817040085792542 -0.6269930005073547 -0.0624690018594265 0.7765169739723206
          0.23987099528312683 -0.8787519931793213 0.41262200474739075 -0.017100999131798744 -0.8550919890403748 0.5181940197944641
          -0.3675459921360016 -0.8051949739456177 0.4653719961643219 -0.12440600246191025 -0.8678359985351562 0.48102301359176636
          -0.5151690244674683 -0.6734799742698669 0.5301179885864258 -0.7208529710769653 -0.6867470145225525 0.0935330018401146
          -0.4203000068664551 -0.9070180058479309 0.02582000009715557 -0.3698750138282776 -0.9122059941291809 0.17627499997615814
          -0.4009299874305725 -0.8821290135383606 0.24719199538230896 -0.6382020115852356 -0.6950849890708923 0.3309909999370575
          -0.6011660099029541 -0.7989330291748047 0.017521999776363373 -0.6989549994468689 -0.7121719717979431 0.06536100059747696
          -0.4224579930305481 -0.8576869964599609 0.2930909991264343 -0.7978799939155579 -0.5187839865684509 0.3070020079612732
          -0.6421909928321838 -0.7655820250511169 0.038405999541282654 -0.8347859978675842 -0.3761120140552521 0.40208399295806885
          -0.8317679762840271 -0.18338100612163544 0.5239589810371399 -0.8918150067329407 -0.26203298568725586 0.3687869906425476
          -0.9253789782524109 -0.31852400302886963 0.20546500384807587 -0.9223080277442932 -0.38642600178718567 0.0048050000332295895
          -0.9444010257720947 -0.26795101165771484 0.19054800271987915 -0.7519170045852661 -0.618395984172821 0.2284879982471466
          -0.9419909715652466 -0.1876949965953827 0.2782520055770874 -0.9633190035820007 -0.213360995054245 0.16276900470256805
          -0.987617015838623 -0.13961200416088104 -0.07156600058078766 -0.9653329849243164 -0.24715499579906464 0.08393900096416473
          -0.9690729975700378 -0.22601500153541565 0.09906899929046631 -0.9992589950561523 0.02839599922299385 0.025993000715970993
          -0.9972350001335144 -0.012660999782383442 0.07322899997234344 -0.9979689717292786 0.0186149999499321 0.06092499941587448
          -0.9988570213317871 0.041749998927116394 -0.023281000554561615 -0.98055100440979 -0.05392500013113022 0.18870900571346283
          0.4494580030441284 -0.8862379789352417 0.11211399734020233 0.4287239909172058 -0.8201040029525757 0.37897899746894836
          0.09852200001478195 -0.9343739748001099 0.34240099787712097 0.3979659974575043 -0.9146850109100342 0.07053200155496597
          0.01951500028371811 -0.9552839994430542 0.2950440049171448 -0.02084299921989441 -0.8962979912757874 0.44296300411224365
          -0.05559400096535683 -0.8012549877166748 0.5957350134849548 -0.15168100595474243 -0.6419919729232788 0.7515580058097839
          -0.21826599538326263 -0.43435901403427124 0.873894989490509 -0.23186899721622467 -0.6765499711036682 0.6989399790763855
          -0.22794300317764282 -0.5931079983711243 0.7721819877624512 -0.23280100524425507 -0.2621519863605499 0.9365249872207642
          -0.10537999868392944 -0.30339500308036804 0.9470199942588806 0.10642100125551224 -0.0022950000129640102 0.9943180084228516
          0.01384699996560812 -0.15453800559043884 0.9878900051116943 0.18044599890708923 -0.13211899995803833 0.9746710062026978
          0.3556399941444397 -0.056887999176979065 0.932889997959137 0.5001109838485718 0.005377000197768211 0.8659440279006958
          0.620402991771698 -0.021748000755906105 0.7839810252189636 0.9697629809379578 0.0014169999631121755 0.24404500424861908
          0.9238719940185547 -0.007215000223368406 0.3826340138912201 0.5150189995765686 0.061650000512599945 0.8549590110778809
          0.42628398537635803 0.11631099879741669 0.8970800042152405 0.42485201358795166 0.16304199397563934 0.8904600143432617
          0.20379599928855896 0.029082000255584717 0.9785810112953186 0.45056501030921936 0.12711800634860992 0.8836470246315002
          0.06673000007867813 -0.03443099930882454 0.997177004814148 -0.016870999708771706 -0.03693300113081932 0.9991750121116638
          -0.07891599833965302 -0.048323001712560654 0.9957090020179749 -0.08333200216293335 -0.05243299901485443 0.9951419830322266
          -0.3754790127277374 -0.07546599954366684 0.923753023147583 -0.1859769970178604 -0.049272000789642334 0.9813179969787598
          -0.39612799882888794 -0.05455999821424484 0.9165729880332947 0.0860079973936081 -0.00030700000934302807 0.9962940216064453
          -0.9074079990386963 -0.1969749927520752 0.37122899293899536 -0.9864770174026489 -0.11950600147247314 0.11217000335454941
          -0.9740989804267883 -0.22593900561332703 0.009074999950826168 -0.9879940152168274 -0.14402399957180023 0.05589500069618225
          -0.8868399858474731 -0.19626900553703308 0.41832301020622253 -0.950547993183136 -0.2607260048389435 0.1687610000371933
          -0.6112350225448608 -0.049747999757528305 0.7898839712142944 -0.7153379917144775 -0.06694699823856354 0.6955639719963074
          -0.9135000109672546 -0.08128999918699265 0.39863499999046326 -0.8803899884223938 -0.1396549940109253 0.45322099328041077
          -0.9245120286941528 -0.039806000888347626 0.379067987203598 -0.8664659857749939 -0.12350799888372421 0.4837169945240021
          -0.8992630243301392 -0.18678699433803558 0.39552098512649536 -0.9633049964904785 -0.14840400218963623 0.2236499935388565
          -0.5369660258293152 -0.04033900052309036 0.8426390290260315 -0.33347898721694946 -0.028230000287294388 0.9423350095748901
          0.033121999353170395 -0.9642940163612366 0.2627530097961426 0.30659300088882446 -0.9508510231971741 0.04340000078082085
          -0.1523759961128235 -0.9442300200462341 0.29190999269485474 -0.19414399564266205 -0.9744179844856262 0.11321800202131271
          -0.14316199719905853 -0.985614001750946 -0.08983200043439865 -0.12302099913358688 -0.9897350072860718 0.07273499667644501
          -0.402660995721817 -0.9061639904975891 -0.12935000658035278 -0.5527690052986145 -0.8313940167427063 -0.05684100091457367
          -0.1546040028333664 -0.971705973148346 0.1785620003938675 -0.1448429971933365 -0.9663940072059631 0.21237300336360931
          -0.6064890027046204 -0.7927320003509521 -0.061204999685287476 -0.42508798837661743 -0.8595119714736938 -0.2837960124015808
          -0.7437940239906311 -0.660722017288208 0.10108499974012375 -0.8415229916572571 -0.5139729976654053 0.1663459986448288
          -0.8913589715957642 -0.33309999108314514 0.30744698643684387 -0.8812080025672913 -0.4693099856376648 0.056752998381853104
          -0.8658930063247681 -0.48964598774909973 -0.10235100239515305 -0.927856981754303 -0.3563530147075653 -0.10997500270605087
          -0.8160060048103333 -0.4745909869670868 -0.3299959897994995 -0.9992349743843079 -0.03637100011110306 0.014399000443518162
          -0.9879419803619385 -0.08786699920892715 0.1274770051240921 -0.9616460204124451 -0.22883400321006775 -0.15123699605464935
          -0.9015679955482483 0.0711439996957779 -0.42674699425697327 -0.9034979939460754 -0.11180900037288666 -0.4137499928474426
          -0.9610000252723694 0.07350499927997589 -0.2666020095348358 -0.9205570220947266 -0.3038420081138611 -0.24546900391578674
          -0.9892269968986511 0.1269409954547882 -0.07291100174188614 -0.9404870271682739 0.26433101296424866 -0.21357299387454987
          -0.972341001033783 0.11984600126743317 -0.20047500729560852 -0.8941439986228943 0.2496660053730011 -0.37171700596809387
          -0.9264559745788574 0.023313000798225403 -0.3756810128688812 -0.9589419960975647 0.06411000341176987 -0.27626198530197144
          -0.914156973361969 0.13934700191020966 -0.38065698742866516 -0.9791979789733887 -0.03844799846410751 -0.19923199713230133
          0.5003439784049988 -0.8568969964981079 -0.1240290030837059 0.4925130009651184 -0.8292400240898132 -0.264180988073349
          0.37652599811553955 -0.9214029908180237 -0.09615200012922287 0.23072199523448944 -0.9566429853439331 0.17776699364185333
          0.2705180048942566 -0.9563360214233398 -0.1106410026550293 0.437857985496521 -0.8480520248413086 -0.2984749972820282
          0.06235099956393242 -0.9965850114822388 0.054134998470544815 -0.17718499898910522 -0.9452210068702698 0.2741590142250061
          -0.212567999958992 -0.9749699831008911 -0.06518500298261642 -0.13797299563884735 -0.7934839725494385 0.5927450060844421
          0.07938999682664871 -0.2831229865550995 0.9557920098304749 -0.094030000269413 -0.46431100368499756 0.880666971206665
          -0.009645000100135803 -0.6880959868431091 0.7255560159683228 -0.06165900081396103 -0.7718939781188965 0.6327540278434753
          0.038075998425483704 -0.5694910287857056 0.8211150169372559 0.1979680061340332 -0.22645999491214752 0.9536899924278259
          0.4872579872608185 -0.07710900157690048 0.8698469996452332 0.6925539970397949 0.007926000282168388 0.7213230133056641
          0.600944995880127 0.02097499929368496 0.7990149855613708 0.5453439950942993 -0.07973600178956985 0.8344110250473022
          0.8326550126075745 0.0016850000247359276 0.5537899732589722 0.588729977607727 0.1523739993572235 0.7938380241394043
          0.5196530222892761 0.16938799619674683 0.8374170064926147 0.724386990070343 0.08860699832439423 0.68367600440979
          0.6022359728813171 0.19487300515174866 0.7741680145263672 0.28201600909233093 0.048333000391721725 0.958191990852356
          0.1523970067501068 0.005140999797731638 0.9883059859275818 0.6055439710617065 0.1850689947605133 0.7739940285682678
          0.5669839978218079 0.15750500559806824 0.8085299730300903 0.49127399921417236 0.10461899638175964 0.8646990060806274
          0.12881599366664886 0.01808200031518936 0.9915040135383606 -0.03688700124621391 -0.006810999941080809 0.9992960095405579
          -0.11925099790096283 -0.006548000033944845 0.9928420186042786 0.3843030035495758 0.05787099897861481 0.921392023563385
          0.019207000732421875 0.03014799952507019 0.999360978603363 0.38453200459480286 0.0682620033621788 0.9205840229988098
          0.2548919916152954 0.05782699957489967 0.9652389883995056 0.1932149976491928 0.05169299989938736 0.9797940254211426
          0.37124499678611755 0.03711700066924095 0.927793025970459 -0.9851930141448975 -0.11609199643135071 -0.12616699934005737
          -0.9442740082740784 -0.06284199655056 -0.3231070041656494 -0.9307010173797607 -0.1620440036058426 -0.32792899012565613
          -0.9456200003623962 -0.24658599495887756 -0.21212799847126007 -0.9590539932250977 -0.1974329948425293 0.20306800305843353
          -0.964024007320404 -0.2456900030374527 -0.10145600140094757 -0.5991160273551941 -0.030926000326871872 0.8000649809837341
          -0.41108399629592896 -0.009599000215530396 0.9115470051765442 -0.46877801418304443 -0.012721999548375607 0.8832250237464905
          -0.4215559959411621 -0.015912000089883804 0.9066630005836487 -0.5836949944496155 -0.03485000133514404 0.8112249970436096
          -0.6831979751586914 -0.061076000332832336 0.7276750206947327 -0.7864400148391724 -0.0876849964261055 0.6114109754562378
          -0.5651140213012695 -0.018725000321865082 0.8248010277748108 -0.9597190022468567 -0.09778600186109543 0.2633950114250183
          -0.9810670018196106 -0.1688780039548874 0.09480500221252441 -0.9644899964332581 -0.19139499962329865 0.1820099949836731
          -0.9603180289268494 -0.21101999282836914 0.1823749989271164 -0.9139469861984253 -0.11404699832201004 0.38947999477386475
          -0.971356987953186 -0.22825400531291962 0.06607300043106079 -0.1378919929265976 -0.00953999999910593 0.990401029586792
          -0.25465700030326843 0.006380999926477671 0.9670109748840332 -0.44681400060653687 -0.019807999953627586 0.8944069743156433
          0.0015180000336840749 -0.9948350191116333 0.10149800032377243 0.36521899700164795 -0.8997020125389099 -0.23906299471855164
          0.33882200717926025 -0.9376369714736938 -0.07769700139760971 0.02390100061893463 -0.9992989897727966 0.02879899926483631
          -0.151637002825737 -0.9446600079536438 -0.29089999198913574 0.07772699743509293 -0.9227169752120972 -0.3775610029697418
          -0.024983000010252 -0.9895269870758057 -0.14216899871826172 -0.7074220180511475 -0.6953009963035583 -0.12692900002002716
          -0.17479300498962402 -0.8529559969902039 -0.4918479919433594 -0.40087801218032837 -0.829695999622345 -0.38846099376678467
          -0.6079130172729492 -0.7135639786720276 -0.34823501110076904 -0.7960150241851807 -0.5687519907951355 -0.20707599818706512
          -0.6554039716720581 -0.5277469754219055 -0.5403050184249878 -0.7328709959983826 -0.37287500500679016 -0.5690910220146179
          -0.9583740234375 0.1964769959449768 -0.207163006067276 -0.8772760033607483 -0.2812280058860779 -0.3889690041542053
          -0.8583279848098755 -0.2092210054397583 -0.4685080051422119 -0.7552809715270996 0.05233300104737282 -0.6533079743385315
          -0.793042004108429 0.36463800072669983 -0.487978994846344 -0.766933023929596 0.23103000223636627 -0.5986980199813843
          -0.7650730013847351 -0.13687099516391754 -0.6292300224304199 -0.9053019881248474 0.33325499296188354 -0.2633810043334961
          -0.765404999256134 0.42061299085617065 -0.48707398772239685 -0.7359020113945007 0.2206829935312271 -0.6401150226593018
          -0.8243299722671509 0.08705300092697144 -0.5593760013580322 -0.7970330119132996 0.025086000561714172 -0.603413999080658
          -0.8607689738273621 -0.019922999665141106 -0.5086060166358948 -0.8413209915161133 -0.008829999715089798 -0.5404639840126038
          0.35091298818588257 -0.8347039818763733 -0.4244160056114197 0.4849439859390259 -0.759028971195221 -0.4344019889831543
          0.5107640027999878 -0.7486760020256042 -0.42261600494384766 0.18898999691009521 -0.925046980381012 -0.3295010030269623
          -0.022445999085903168 -0.9686899781227112 -0.24725499749183655 0.36330199241638184 -0.922523021697998 -0.1302410066127777
          0.35390999913215637 -0.8024830222129822 -0.4803839921951294 -0.22618399560451508 -0.9455749988555908 -0.23394399881362915
          -0.07151299715042114 -0.99720698595047 0.02155200019478798 -0.02689100056886673 -0.9719579815864563 0.2336139976978302
          -0.0889429971575737 -0.8930209875106812 0.44113799929618835 -0.11156100034713745 -0.9839349985122681 -0.13937799632549286
          -0.25028300285339355 -0.8909109830856323 -0.3789930045604706 -0.1627259999513626 -0.9511709809303284 -0.2622869908809662
          0.04663199931383133 -0.33642399311065674 0.9405549764633179 0.06616800278425217 -0.3961929976940155 0.9157800078392029
          0.2747119963169098 -0.5723890066146851 0.772596001625061 0.19584499299526215 -0.6381130218505859 0.7446179986000061
          0.07436899840831757 -0.8045470118522644 0.589214026927948 0.06726299971342087 -0.7068390250205994 0.704168975353241
          0.37403398752212524 -0.4034700095653534 0.8350510001182556 0.2967810034751892 -0.3765470087528229 0.8775720000267029
          0.31700599193573 -0.24842600524425507 0.9153100252151489 0.6900119781494141 0.015131999738514423 0.7236390113830566
          0.6378669738769531 -0.049924999475479126 0.7685269713401794 0.47303199768066406 -0.17499800026416779 0.8634909987449646
          0.5454850196838379 -0.13789500296115875 0.8266990184783936 0.5885819792747498 0.01685900054872036 0.8082619905471802
          0.7612230181694031 -0.016533000394701958 0.6482790112495422 0.619143009185791 0.002804999938234687 0.785273015499115
          0.7884089946746826 0.1736679971218109 0.5901280045509338 0.7688130140304565 0.1733420044183731 0.6155319809913635
          0.8307480216026306 -0.014480000361800194 0.556460976600647 0.6889690160751343 0.15705899894237518 0.7075700163841248
          0.37124499678611755 0.07603900134563446 0.9254159927368164 0.4875270128250122 0.07974500209093094 0.8694589734077454
          0.7333170175552368 0.23201699554920197 0.6390730142593384 0.6880009770393372 0.16948199272155762 0.7056419849395752
          0.0032840000931173563 -0.00010199999815085903 0.9999949932098389 0.5921869874000549 0.10006599873304367 0.7995629906654358
          0.523626983165741 0.11765500158071518 0.843783974647522 0.43125200271606445 0.10655900090932846 0.8959169983863831
          0.5823739767074585 0.14060799777507782 0.8006690144538879 0.054051999002695084 0.0222609993070364 0.9982900023460388
          0.2187899947166443 0.07305900007486343 0.9730330109596252 0.41011399030685425 0.1240520030260086 0.9035580158233643
          -0.8443260192871094 -0.09676499664783478 -0.5270190238952637 -0.7027739882469177 -0.03119399957358837 -0.7107290029525757
          -0.733555018901825 -0.126691997051239 -0.6677169799804688 -0.8546029925346375 -0.2153259962797165 -0.47253501415252686