<?xml version="1.0"?>
<VTKFile type="PolyData" version="0.1" byte_order="LittleEndian" header_type="UInt32" compressor="vtkZLibDataCompressor">
  <PolyData>
    <Piece NumberOfPoints="1321" NumberOfVerts="0" NumberOfLines="0" NumberOfStrips="0" NumberOfPolys="2638">
      <PointData Normals="Normals">
        <DataArray type="Float32" Name="Normals" NumberOfComponents="3" format="ascii" RangeMin="0.9999992766591688" RangeMax="1.0000007592520386">
          -0.32164400815963745 -0.9468479752540588 -0.004840000066906214 -0.20511899888515472 -0.9699959754943848 -0.130512997508049
          -0.24723100662231445 -0.9204930067062378 0.3026059865951538 -0.31880900263786316 -0.9296240210533142 0.18482300639152527
          -0.2773300111293793 -0.9202330112457275 -0.27615201473236084 -0.2751680016517639 -0.9150720238685608 -0.2948330044746399
          0.027861999347805977 -0.9979450106620789 -0.057697001844644547 -0.04861700162291527 -0.9323509931564331 -0.35826998949050903
          -0.34776198863983154 -0.6275129914283752 0.6966270208358765 -0.40227600932121277 -0.6678779721260071 0.6261889934539795
          -0.12558099627494812 -0.8908140063285828 0.4366689920425415 -0.11485899984836578 -0.9408349990844727 0.3188050091266632
          -0.4333310127258301 -0.6649420261383057 0.6083390116691589 -0.5064520239830017 -0.732200026512146 0.4553999900817871
          -0.3941909968852997 -0.9185799956321716 0.02871200069785118 0.010972999967634678 -0.900583028793335 -0.43454501032829285
          -0.07878900319337845 -0.8646829724311829 -0.4961009919643402 -0.49633699655532837 -0.8495100140571594 -0.17883899807929993
          -0.33611300587654114 -0.8463839888572693 -0.413112998008728 0.0810910016298294 -0.9874640107154846 0.13542300462722778
          0.2952969968318939 -0.9186720252037048 -0.262376993894577 0.19529199600219727 -0.9095630049705505 -0.36681801080703735
          -0.4478769898414612 -0.3216480016708374 0.8342350125312805 -0.4190579950809479 -0.308245986700058 0.8540340065956116
          -0.2858780026435852 -0.5707719922065735 0.7697359919548035 -0.46424600481987 -0.34579598903656006 0.8154140114784241
          -0.034623999148607254 -0.9547209739685059 0.29548200964927673 -0.0856420025229454 -0.8182039856910706 0.5685139894485474
          0.1263660043478012 -0.9866589903831482 0.10264000296592712 0.11301600188016891 -0.984486997127533 0.13421399891376495
          -0.5217980146408081 -0.3788760006427765 0.7643160223960876 -0.6386370062828064 -0.7184929847717285 0.2755190134048462
          -0.657006025314331 -0.44558700919151306 0.6081079840660095 0.33630698919296265 -0.8886470198631287 -0.3117769956588745
          0.178507998585701 -0.8945639729499817 -0.4097450077533722 -0.13937899470329285 -0.883213996887207 -0.44777899980545044
          -0.7442950010299683 -0.6579790115356445 0.11440599709749222 -0.5806329846382141 -0.8017429709434509 -0.14168000221252441
          -0.37074801325798035 -0.8813570141792297 -0.29284000396728516 0.21202699840068817 -0.9129629731178284 -0.34863099455833435
          0.2021629959344864 -0.9268280267715454 -0.31641700863838196 -0.4378649890422821 -0.10691100358963013 0.8926609754562378
          -0.4146290123462677 -0.09601599723100662 0.9049109816551208 -0.34164100885391235 -0.2930839955806732 0.8929629921913147
          -0.3892180025577545 -0.13406899571418762 0.9113370180130005 -0.21216200292110443 -0.49524301290512085 0.8424500226974487
          -0.45274999737739563 -0.12059199810028076 0.8834450244903564 -0.01165900006890297 -0.701994001865387 0.7120869755744934
          0.16544300317764282 -0.9371740221977234 0.30713799595832825 0.28158900141716003 -0.9552710056304932 -0.09036099910736084
          -0.5595859885215759 -0.19871200621128082 0.8045979738235474 -0.7544490098953247 -0.5413979887962341 0.37107300758361816
          -0.7196499705314636 -0.3969079852104187 0.5697090029716492 0.2642509937286377 -0.9195380210876465 -0.29089799523353577
          0.30411601066589355 -0.8016350269317627 -0.5146790146827698 0.047439999878406525 -0.8468220233917236 -0.5297560095787048
          -0.22880400717258453 -0.8650959730148315 -0.446382999420166 -0.749409019947052 -0.6508769989013672 0.12143199890851974
          -0.7075999975204468 -0.6672070026397705 0.23267300426959991 -0.5114229917526245 -0.8574810028076172 -0.05633300170302391
          -0.3325459957122803 -0.8968309760093689 -0.2917329967021942 0.3066349923610687 -0.8786349892616272 -0.36602601408958435
          0.22221100330352783 -0.906512975692749 -0.35896599292755127 -0.3626829981803894 0.04171900078654289 0.930978000164032
          -0.5063689947128296 0.05993599817156792 0.8602309823036194 -0.3436580002307892 -0.08864200115203857 0.934902012348175
          -0.2395150065422058 -0.27802300453186035 0.9302340149879456 -0.1441980004310608 -0.3775720000267029 0.9146829843521118
          -0.5518320202827454 -0.03672799840569496 0.8331459760665894 0.09120699763298035 -0.5599939823150635 0.8234609961509705
          0.34292998909950256 -0.7436800003051758 0.5738800168037415 0.45247000455856323 -0.8763390183448792 0.1652269959449768
          0.5574449896812439 -0.8250700235366821 -0.0922740027308464 -0.6778770089149475 -0.20759500563144684 0.705256998538971
          -0.7884590029716492 -0.36236199736595154 0.4970160126686096 0.35976698994636536 -0.7627679705619812 -0.5373579859733582
          0.37783798575401306 -0.789762020111084 -0.4832330048084259 0.24115900695323944 -0.7700870037078857 -0.5906000137329102
          0.39442500472068787 -0.6034550070762634 -0.6930149793624878 -0.048277001827955246 -0.7564849853515625 -0.652226984500885
          -0.3192340135574341 -0.7756900191307068 -0.5444210171699524 -0.7473419904708862 -0.6252869963645935 0.224713996052742
          -0.5547869801521301 -0.8301489949226379 -0.055351998656988144 -0.4353710114955902 -0.8554459810256958 -0.28047001361846924
          -0.33664700388908386 -0.7882450222969055 -0.5151100158691406 0.528590977191925 -0.7634919881820679 -0.37104201316833496
          0.6221020221710205 -0.7307389974594116 -0.2810859978199005 -0.38136500120162964 0.05892600119113922 0.9225450158119202
          -0.47242099046707153 0.07320299744606018 0.8783280253410339 -0.30410900712013245 0.09827399998903275 0.9475550055503845
          -0.6746960282325745 0.1157979965209961 0.7289559841156006 -0.611844003200531 0.22152799367904663 0.7593240141868591
          -0.6639770269393921 -0.03240299969911575 0.7470510005950928 -0.5742759704589844 0.16154800355434418 0.8025640249252319
          -0.26988300681114197 0.001964000053703785 0.9628909826278687 -0.42910999059677124 0.014673000201582909 0.903132975101471
          -0.12559199333190918 -0.21770800650119781 0.9678999781608582 0.007670000195503235 -0.38085299730300903 0.9246039986610413
          -0.7039049863815308 -0.15644599497318268 0.6928510069847107 0.18937300145626068 -0.48273199796676636 0.8550480008125305
          0.6120679974555969 -0.7295699715614319 0.3051240146160126 0.40356600284576416 -0.6057940125465393 0.6856740117073059
          0.6902660131454468 -0.7235429883003235 -0.004279999993741512 -0.8255829811096191 -0.23936599493026733 0.5109959840774536
          -0.8784139752388 -0.42672300338745117 0.21516600251197815 0.4682590067386627 -0.5877169966697693 -0.6597899794578552
          0.5352609753608704 -0.6891940236091614 -0.4883730113506317 0.2579619884490967 -0.6137170195579529 -0.7461950182914734
          0.43601998686790466 -0.5080559849739075 -0.742808997631073 0.3149760067462921 -0.44300898909568787 -0.8393650054931641
          0.36245301365852356 -0.42266398668289185 -0.8306519985198975 -0.029272999614477158 -0.5532259941101074 -0.8325170278549194
          -0.33573898673057556 -0.618008017539978 -0.710877001285553 -0.49763500690460205 -0.5972170233726501 -0.629040002822876
          -0.7577750086784363 -0.6459029912948608 -0.09265899658203125 -0.5420510172843933 -0.7245230078697205 -0.42573100328445435
          -0.4834800064563751 -0.6352009773254395 -0.6023010015487671 0.6345099806785583 -0.7042199969291687 -0.31854501366615295
          0.6977840065956116 -0.6976100206375122 -0.16259999573230743 -0.3108629882335663 0.06205600127577782 0.9484270215034485
          -0.4151960015296936 0.06655800342559814 0.907293975353241 -0.26270800828933716 0.0939669981598854 0.9602890014648438
          -0.3028019964694977 0.16771000623703003 0.93818199634552 -0.7421370148658752 0.2924340069293976 0.6030880212783813
          -0.70004802942276 0.08024100214242935 0.709572970867157 -0.8419780135154724 0.14551900327205658 0.5195170044898987
          -0.680662989616394 0.2626760005950928 0.6838849782943726 -0.6758530139923096 0.23817400634288788 0.6974920034408569
          -0.8170170187950134 -0.09538699686527252 0.5686699748039246 -0.7300000190734863 0.09123200178146362 0.6773300170898438
          -0.21449099481105804 -0.0627330020070076 0.9747089743614197 0.1383969932794571 -0.42476001381874084 0.894665002822876
          -0.06318499892950058 -0.22870099544525146 0.9714440107345581 0.5910339951515198 -0.6791589856147766 0.43522700667381287
          0.6913269758224487 -0.7154250144958496 0.1011660024523735 0.333530992269516 -0.5165309906005859 0.788640022277832
          0.27567800879478455 -0.45402801036834717 0.8472660183906555 -0.9345740079879761 -0.33238598704338074 0.12685100734233856
          -0.918703019618988 -0.172092005610466 0.3554829955101013 -0.9238899946212769 -0.3816719949245453 -0.027442999184131622
          -0.8822060227394104 -0.4411570131778717 -0.16459999978542328 0.6667969822883606 -0.4071030020713806 -0.6242190003395081
          0.5955449938774109 -0.5539529919624329 -0.5817739963531494 0.4618459939956665 -0.48963600397109985 -0.7395640015602112
          0.17427100241184235 -0.4699710011482239 -0.8653079867362976 0.15229499340057373 -0.38520801067352295 -0.9101759791374207
          0.4488790035247803 -0.38307100534439087 -0.8073189854621887 0.3332050144672394 -0.2945599853992462 -0.8956609964370728
          -0.15832099318504333 -0.47012999653816223 -0.8682810068130493 -0.4835430085659027 -0.5117800235748291 -0.710116982460022
          -0.53050297498703 -0.5273600220680237 -0.663670003414154 -0.8087720274925232 -0.3947469890117645 -0.4359619915485382
          -0.6603429913520813 -0.47648701071739197 -0.5804370045661926 -0.7028700113296509 -0.4419350028038025 -0.5573750138282776
          -0.7133409976959229 -0.5823249816894531 -0.3899250030517578 -0.7475529909133911 -0.4998590052127838 -0.43738600611686707
          0.809893012046814 -0.5747190117835999 -0.11735299974679947 0.7140949964523315 -0.5398120284080505 -0.4457249939441681
          0.776494026184082 -0.6281449794769287 0.04991399869322777 0.706699013710022 -0.6868280172348022 0.16983599960803986
          -0.10764600336551666 -0.14597900211811066 0.9834139943122864 -0.32889100909233093 0.04636399820446968 0.9432290196418762
          -0.14314399659633636 0.09316100180149078 0.985306978225708 -0.27338001132011414 0.10047800093889236 0.9566439986228943
          -0.46265798807144165 0.11756400018930435 0.8787069916725159 -0.17500199377536774 0.13882799446582794 0.9747310280799866
          -0.2644059956073761 0.18402099609375 0.9466919898986816 -0.021080000326037407 0.15230800211429596 0.9881079792976379
          -0.25727900862693787 0.3564000129699707 0.8982130289077759 -0.10130500048398972 0.26707199215888977 0.9583370089530945
          -0.8702189922332764 0.29713401198387146 0.39297598600387573 -0.8427870273590088 0.24482500553131104 0.4793440103530884
          -0.6775180101394653 0.11582499742507935 0.7263290286064148 -0.8418260216712952 0.06925699859857559 0.5352870225906372
          -0.9378200173377991 0.15827199816703796 0.30893999338150024 -0.9655129909515381 0.06912200152873993 0.25101199746131897
          -0.8766250014305115 0.06534499675035477 0.476716011762619 -0.09649299830198288 -0.19157999753952026 0.976722002029419
          0.12540200352668762 -0.324974000453949 0.9373720288276672 0.598825991153717 -0.5868210196495056 0.5450209975242615
          0.06135600060224533 -0.30902600288391113 0.949072003364563 0.34519198536872864 -0.47355398535728455 0.8103020191192627
          -0.9825950264930725 -0.17544500529766083 0.06103400141000748 -0.9435750246047974 -0.26644301414489746 -0.19665899872779846
          -0.9049860239028931 -0.3014979958534241 -0.3001669943332672 0.6918129920959473 -0.3578839898109436 -0.6271470189094543
          0.9502689838409424 -0.15602000057697296 -0.2695310115814209 0.9519000053405762 -0.15759000182151794 -0.26277899742126465
          0.5907269716262817 -0.38011300563812256 -0.7117279767990112 0.6600940227508545 -0.4219900071620941 -0.6214500069618225
          0.11553800106048584 -0.4881089925765991 -0.8651009798049927 0.47442400455474854 -0.25483399629592896 -0.8426039814949036
          0.4656270146369934 -0.12630900740623474 -0.8759210109710693 0.36858901381492615 -0.22506700456142426 -0.9019349813461304
          -0.2726899981498718 -0.5051620006561279 -0.8188109993934631 -0.5661579966545105 -0.5402219891548157 -0.6225950121879578
          -0.6875029802322388 -0.4720419943332672 -0.551829993724823 -0.8622109889984131 -0.32304900884628296 -0.39017000794410706
          -0.9462170004844666 -0.14055900275707245 -0.29140400886535645 -0.9211000204086304 -0.25600099563598633 -0.29332399368286133
          0.8361719846725464 -0.44022300839424133 -0.3271400034427643 0.8937559723854065 -0.42381298542022705 -0.14691400527954102
          0.8755120038986206 -0.4697659909725189 0.11313299834728241 0.9403970241546631 -0.34007298946380615 -0.0017800000496208668
          0.7938200235366821 -0.3029470145702362 -0.5273259878158569 0.7776110172271729 -0.535673975944519 0.3292030096054077
          0.15562400221824646 -0.2835899889469147 0.9462329745292664 0.29376500844955444 -0.3645760118961334 0.8836209774017334
          0.055070001631975174 -0.2663469910621643 0.9623029828071594 -0.08095499873161316 -0.02430099993944168 0.9964209794998169
          -0.14121900498867035 0.12937000393867493 0.9814890027046204 -0.5002679824829102 0.13177399337291718 0.855783998966217
          -0.332394003868103 0.1425430029630661 0.9323070049285889 0.09840700030326843 0.15651600062847137 0.982761025428772
          -0.1048009991645813 0.32145801186561584 0.9411069750785828 -0.0607060007750988 0.18485300242900848 0.9808890223503113
          0.030855000019073486 0.13763700425624847 0.9900019764900208 0.09902700036764145 0.1238510012626648 0.9873470067977905
          0.07742200046777725 0.1275079995393753 0.9888110160827637 -0.14893099665641785 0.3041830062866211 0.9409000277519226
          -0.212009996175766 0.3583599925041199 0.9091920256614685 -0.07948999851942062 0.3978230059146881 0.9140120148658752
          -0.930836021900177 0.2895340025424957 0.2229669988155365 -0.9515609741210938 0.28581300377845764 0.11332699656486511
          -0.9335349798202515 0.17263899743556976 0.3141779899597168 -0.978954017162323 0.009383000433444977 0.2038639932870865
          -0.8381450176239014 0.08386900275945663 0.5389609932899475 -0.7845699787139893 0.12619799375534058 0.6070619821548462
          -0.6358709931373596 0.14215600490570068 0.7585899829864502 -0.5615730285644531 0.14611099660396576 0.8144239783287048
          -0.9526619911193848 0.04140400141477585 0.3012000024318695 -0.9763380289077759 0.18754200637340546 0.1076669991016388
          -0.9852420091629028 0.11256399750709534 0.12894900143146515 -0.9964749813079834 0.0119439996778965 0.0830409973859787
          -0.9961490035057068 0.06466799974441528 -0.0592069998383522 0.6146360039710999 -0.45076900720596313 0.6473249793052673
          0.5446580052375793 -0.479746013879776 0.6878899931907654 -0.9896010160446167 -0.1169930025935173 -0.08367999643087387
          -0.9861369729042053 -0.12301900237798691 -0.11135400086641312 0.8376219868659973 -0.24204400181770325 -0.48969700932502747
          0.8594499826431274 -0.21580800414085388 -0.4634360074996948 0.9321060180664062 -0.13624699413776398 -0.3355810046195984
          0.7301309704780579 -0.2471430003643036 -0.6370480060577393 -0.21063999831676483 -0.6252089738845825 -0.7514950037002563
          -0.07096099853515625 -0.6496909856796265 -0.7568789720535278 -0.011382999829947948 -0.5667669773101807 -0.8238000273704529
          0.1783750057220459 -0.41112199425697327 -0.8939579725265503 0.573058009147644 -0.13276800513267517 -0.8086889982223511
          0.5820890069007874 -0.03634300082921982 -0.8123130202293396 0.5107529759407043 -0.04547800123691559 -0.8585240244865417
          0.16643700003623962 -0.24932000041007996 -0.9540119767189026 0.21238799393177032 -0.04556500166654587 -0.9761229753494263
          0.40273499488830566 -0.013407999649643898 -0.9152190089225769 -0.5871729850769043 -0.4907670021057129 -0.6437199711799622
          -0.7319080233573914 -0.44898200035095215 -0.5125669836997986 -0.7952160239219666 -0.3641580045223236 -0.48478999733924866
          -0.8398420214653015 -0.3228920102119446 -0.43635499477386475 -0.9565190076828003 -0.1356479972600937 -0.25820600986480713
          -0.9852309823036194 0.03658699989318848 -0.167276993393898 -0.9951390027999878 0.061581000685691833 -0.07685600221157074
          -0.9723299741744995 0.012267000041902065 -0.23329000174999237 -0.9426609873771667 -0.08968900144100189 -0.32147398591041565
          0.9332129955291748 -0.2782759964466095 -0.22732500731945038 0.9072350263595581 -0.36269399523735046 0.21302300691604614
          0.963873028755188 -0.222121000289917 0.14700700342655182 0.9791330099105835 -0.19401399791240692 0.060474999248981476
          0.7989540100097656 -0.3268809914588928 0.5047990083694458 0.3742380142211914 -0.38967299461364746 0.8414869904518127
          0.15894199907779694 -0.22367000579833984 0.9616180062294006 0.21823200583457947 -0.08892499655485153 0.9718369841575623
          -0.2119850069284439 0.1416739970445633 0.9669489860534668 -0.42796701192855835 0.1407950073480606 0.8927599787712097
          0.3130500018596649 -0.03659600019454956 0.9490320086479187 0.23927199840545654 0.31183698773384094 0.919514000415802
          0.5210340023040771 0.1303820013999939 0.8435189723968506 -0.10751199722290039 0.24665500223636627 0.9631209969520569
          -0.06518399715423584 0.1474989950656891 0.9869120121002197 0.11117400228977203 0.22291600704193115 0.9684770107269287
          0.31571799516677856 0.18857699632644653 0.9299250245094299 0.2181289941072464 0.158377006649971 0.9629830121994019
          0.41584300994873047 0.1634330004453659 0.894631028175354 0.16880400478839874 0.11595500260591507 0.9788050055503845
          0.009465999901294708 0.3287169933319092 0.9443809986114502 0.25849398970603943 0.33193400502204895 0.9071940183639526
          -0.988768994808197 0.09489700198173523 0.1154559999704361 -0.9746000170707703 0.21029099822044373 -0.07702600210905075
          -0.981033980846405 0.18691200017929077 -0.05135200172662735 -0.9723870158195496 0.2238450050354004 0.06600400060415268
          -0.9065899848937988 0.06946700066328049 0.41625499725341797 -0.683210015296936 0.14506199955940247 0.7156680226325989
          -0.6775569915771484 0.13011500239372253 0.7238690257072449 -0.550229012966156 0.14438800513744354 0.8224359750747681
          -0.9925699830055237 0.003309000050649047 0.12162800133228302 -0.8660590052604675 0.4961029887199402 0.06182900071144104
          -0.9912980198860168 -0.01733900047838688 -0.1304900050163269 -0.9829800128936768 0.18070299923419952 0.03313000127673149
          -0.9199140071868896 0.006130000110715628 -0.39207300543785095 -0.9782540202140808 0.1244949996471405 -0.16588999330997467
          0.4559819996356964 -0.27448898553848267 0.8466029763221741 0.6594030261039734 -0.28850001096725464 0.6942300200462341
          0.815276026725769 -0.17232100665569305 -0.5528389811515808 0.7917580008506775 -0.19974200427532196 -0.5772539973258972
          0.8886380195617676 -0.24833999574184418 -0.38555100560188293 0.9454339742660522 -0.24001100659370422 -0.22033900022506714
          0.7362679839134216 -0.15807700157165527 -0.6579669713973999 -0.3001909852027893 -0.6085500121116638 -0.7345420122146606
          -0.17931799590587616 -0.5251830220222473 -0.8318819999694824 0.007153999991714954 -0.45218798518180847 -0.8918939828872681
          0.5003830194473267 0.016087999567389488 -0.8656550049781799 0.7138190269470215 -0.06921900063753128 -0.6969019770622253
          0.5589920282363892 0.06447699666023254 -0.826662003993988 0.5205810070037842 0.03257700055837631 -0.853190004825592
          0.40981701016426086 0.11708399653434753 -0.9046220183372498 -0.1065870001912117 -0.3898079991340637 -0.9147070050239563
          -0.004637999925762415 -0.18249300122261047 -0.9831960201263428 0.12090300023555756 -0.05810699984431267 -0.990962028503418
          0.2396170049905777 0.049313001334667206 -0.9696140289306641 0.10097700357437134 0.14731299877166748 -0.983922004699707
          0.018852999433875084 0.06089099869132042 -0.9979659914970398 0.25495100021362305 0.19431699812412262 -0.9472280144691467
          -0.4351229965686798 -0.41299301385879517 -0.8000659942626953 -0.8384119868278503 -0.2685199975967407 -0.4743030071258545
          -0.6812719702720642 -0.3257879912853241 -0.6555389761924744 -0.9433910250663757 -0.1734600067138672 -0.2827099859714508
          -0.9221569895744324 -0.22741499543190002 -0.3129050135612488 -0.9472299814224243 -0.15207000076770782 -0.28218701481819153
          -0.9904639720916748 0.03897399827837944 -0.13214699923992157 0.9041730165481567 -0.14482399821281433 0.40186598896980286
          0.9335820078849792 -0.09740699827671051 0.344870001077652 0.9506199955940247 -0.18666300177574158 0.2479500025510788
          0.8707200288772583 -0.062139999121427536 0.4878369867801666 0.9596409797668457 -0.26099899411201477 -0.10473600029945374
          0.7341300249099731 -0.1044979989528656 0.6709200143814087 0.48864999413490295 -0.2048339992761612 0.8480949997901917
          -0.3116919994354248 0.13851900398731232 0.9400320053100586 -0.4439919888973236 0.14238999783992767 0.8846439719200134
          0.13837000727653503 0.13829199969768524 0.9806780219078064 -0.09338600188493729 0.16417600214481354 0.982001006603241
          -0.4072819948196411 0.16784200072288513 0.8977469801902771 -0.5150079727172852 0.1711769998073578 0.8399199843406677
          0.5240370035171509 -0.08146899938583374 0.847790002822876 0.4731929898262024 0.2642579972743988 0.8403909802436829
          0.6672459840774536 0.13079999387264252 0.7332630157470703 0.7965329885482788 0.01981000043451786 0.6042699813842773
          0.24651199579238892 0.2789120078086853 0.928138017654419 0.05564400181174278 0.2889479994773865 0.9557260274887085
          0.4196859896183014 0.2747670114040375 0.8650820255279541 0.6508600115776062 0.27065399289131165 0.7093150019645691
          0.39873000979423523 0.1401830017566681 0.9062910079956055 0.7763479948043823 0.21977800130844116 0.5907459855079651
          0.6504539847373962 0.14690500497817993 0.745203971862793 0.33845698833465576 0.2925010025501251 0.8943660259246826
          0.44832301139831543 0.2685909867286682 0.8525639772415161 -0.9878420233726501 0.15097999572753906 -0.03705799952149391
          -0.9862120151519775 0.15893399715423584 0.046105001121759415 0.9190859794616699 0.32993999123573303 0.21545499563217163
          -0.7255100011825562 0.09309999644756317 0.6818850040435791 -0.9870949983596802 -0.006690999958664179 0.1599940061569214
          -0.9752920269966125 0.006390000227838755 0.22082799673080444 -0.8922770023345947 0.04647500067949295 0.449088990688324
          -0.5094090104103088 0.08407100290060043 0.8564079999923706 -0.9927399754524231 -0.03867800161242485 -0.11388999968767166
          0.9947490096092224 0.0824740007519722 0.06060099974274635 -0.8888890147209167 -0.03215700015425682 -0.4569930136203766
          -0.9812890291213989 0.1924010068178177 0.007319999858736992 -0.7904419898986816 0.22399500012397766 -0.5701130032539368
          -0.9072030186653137 0.1950799971818924 -0.37272799015045166 -0.7751910090446472 0.03345799818634987 -0.6308410167694092
          -0.9602259993553162 0.21017900109291077 -0.18382200598716736 0.8544390201568604 -0.12616099417209625 -0.5040010213851929
          0.8902080059051514 -0.2556149959564209 -0.3770819902420044 0.8076270222663879 -0.09988000243902206 -0.5811740159988403
          0.8041200041770935 -0.025112999603152275 -0.5939369797706604 0.46795299649238586 -0.10909800231456757 -0.8769930005073547
          0.6093940138816833 0.03605100139975548 -0.7920479774475098 0.359017014503479 0.026856999844312668 -0.9329439997673035
          0.7707480192184448 0.003401000052690506 -0.6371300220489502 0.6617040038108826 0.08974500000476837 -0.7443749904632568
          0.566025972366333 0.17942899465560913 -0.8046240210533142 0.2501310110092163 0.2125449925661087 -0.9445949792861938
          0.05417000129818916 0.3479999899864197 -0.9359279870986938 -0.2992999851703644 -0.25098299980163574 -0.920557975769043
          -0.2821429967880249 -0.06394600123167038 -0.9572389721870422 -0.030508000403642654 -0.0272659994661808 -0.9991629719734192
          -0.1581290066242218 0.24789999425411224 -0.955793023109436 -0.30208200216293335 0.08096799999475479 -0.9498370289802551
          -0.628445029258728 -0.22877199947834015 -0.7434520125389099 -0.4322989881038666 -0.21209199726581573 -0.8764330148696899
          -0.937969982624054 -0.10091900080442429 -0.3317050039768219 -0.8310149908065796 -0.16594499349594116 -0.5309200286865234
          -0.9723060131072998 0.06101899966597557 -0.22560599446296692 0.9222350120544434 -0.10725799947977066 0.37145501375198364
          0.9919829964637756 -0.12305500358343124 0.028769999742507935 0.7452669739723206 0.0336650013923645 0.6659150123596191
          0.9418299794197083 -0.21415099501609802 -0.25902700424194336 -0.2591930031776428 0.10664299875497818 0.9599199891090393
          0.07423499971628189 0.13171300292015076 0.9885039925575256 0.5366550087928772 0.08744999766349792 0.8392580151557922
          0.5563459992408752 0.24344399571418762 0.7944899797439575 0.8090720176696777 0.34051498770713806 0.47901099920272827
          0.5884310007095337 0.3462870121002197 0.7306399941444397 0.8821039795875549 0.2576940059661865 0.39431801438331604
          0.9355340003967285 0.26260799169540405 0.23624800145626068 0.9527279734611511 0.2035370022058487 0.22557200491428375
          0.8522260189056396 0.17612099647521973 0.4926379919052124 0.8614590167999268 0.12330500036478043 0.4926300048828125
          -0.9813950061798096 0.16175499558448792 -0.10343900322914124 -0.8686910271644592 -0.0013810000382363796 0.49535199999809265
          -0.7089130282402039 0.0038689998909831047 0.7052850127220154 -0.9954569935798645 -0.04464000090956688 -0.0840969979763031
          -0.9655870199203491 -0.0010779999429360032 0.26007598638534546 -0.995136022567749 -0.048427000641822815 -0.08578599989414215
          -0.9977890253067017 -0.0461839996278286 0.04779500141739845 -0.9477689862251282 -0.01559900026768446 0.31857600808143616
          -0.3903549909591675 0.02706800028681755 0.9202659726142883 -0.6023309826850891 -0.044877998530864716 0.7969840168952942
          -0.9027330279350281 -0.08080700039863586 -0.422544002532959 -0.7436439990997314 -0.13575200736522675 -0.654649019241333
          -0.6872090101242065 -0.0716710016131401 -0.72291499376297 -0.8899809718132019 0.2599709928035736 -0.37463200092315674
          -0.8582429885864258 0.37190699577331543 -0.35370200872421265 -0.6783810257911682 0.4379029870033264 -0.5899490118026733
          -0.5899980068206787 0.2984530031681061 -0.7502189874649048 -0.4621660113334656 0.103923000395298 -0.8806830048561096
          0.9905819892883301 -0.07359500229358673 -0.11546000093221664 0.8845630288124084 0.018691999837756157 -0.4660469889640808
          0.8424140214920044 -0.0023900000378489494 -0.5388259887695312 0.8875740170478821 0.08127599954605103 -0.45343899726867676
          0.9165940284729004 0.20796500146389008 -0.34147700667381287 0.607134997844696 -0.17217199504375458 -0.7757220268249512
          0.20604999363422394 -0.17761699855327606 -0.9622870087623596 0.42764899134635925 -0.2010129988193512 -0.8813120126724243
          0.6438210010528564 0.09561900049448013 -0.7591779828071594 0.6974290013313293 -0.08389099687337875 -0.7117270231246948
          0.03757400065660477 0.2064410001039505 -0.9777370095252991 0.060357000678777695 -0.06289400160312653 -0.996192991733551
          0.8732590079307556 0.1627340018749237 -0.4592779874801636 0.7637100219726562 0.166920006275177 -0.6236060261726379
          0.6411290168762207 0.22037500143051147 -0.7351109981536865 -0.12189000099897385 0.43029800057411194 -0.8944200277328491
          -0.2399280071258545 0.3754970133304596 -0.8952299952507019 -0.3784730136394501 0.5167840123176575 -0.7679139971733093
          -0.5992000102996826 -0.013152999803423882 -0.800491988658905 -0.4576750099658966 0.4668309986591339 -0.7567049860954285
          -0.5874580144882202 0.26598700881004333 -0.7642930150032043 -0.6557019948959351 0.1390479952096939 -0.742106020450592
          -0.8571199774742126 -0.03142299875617027 -0.5141580104827881 -0.8849809765815735 0.1343960016965866 -0.4458099901676178
          0.9893820285797119 -0.05394100025296211 0.13495700061321259 0.855588972568512 -0.06091799959540367 0.514057993888855
          0.9988089799880981 -0.04550100117921829 0.017612000927329063 0.69411301612854 0.15100699663162231 0.7038499712944031
          -0.15618400275707245 0.06372100114822388 0.9856699705123901 0.15337799489498138 0.05031999945640564 0.9868860244750977
          0.8767790198326111 0.001104000024497509 0.48089200258255005 0.6718540191650391 -0.017274999991059303 0.740481972694397