<?xml version="1.0"?>
<VTKFile type="PolyData" version="0.1" byte_order="LittleEndian" header_type="UInt32" compressor="vtkZLibDataCompressor">
  <PolyData>
    <Piece NumberOfPoints="3280" NumberOfVerts="0" NumberOfLines="0" NumberOfStrips="0" NumberOfPolys="6556">
      <PointData Normals="Normals">
        <DataArray type="Float32" Name="Normals" NumberOfComponents="3" format="ascii" RangeMin="0.9999992448124813" RangeMax="1.0000007902608243">
          -0.21623100340366364 -0.022033000364899635 -0.9760929942131042 -0.23398900032043457 0.017609000205993652 -0.9720799922943115
          -0.3922860026359558 0.0021359999664127827 -0.9198409914970398 -0.45217201113700867 -0.0531110018491745 -0.8903480172157288
          -0.01498399954289198 -0.00026199998683296144 -0.999888002872467 -0.2985590100288391 -0.06869199872016907 -0.951915979385376
          -0.12516799569129944 -0.032221999019384384 -0.9916120171546936 -0.17098300158977509 0.019401000812649727 -0.9850829839706421
          -0.5741739869117737 -0.01425699982792139 -0.8186089992523193 -0.605521023273468 -0.016573000699281693 -0.7956569790840149
          -0.4124709963798523 0.005284000188112259 -0.910955011844635 -0.4354340136051178 -0.02233799919486046 -0.8999429941177368
          -0.3734849989414215 -0.08183600008487701 -0.9240189790725708 -0.5465599894523621 -0.04865799844264984 -0.8360049724578857
          -0.6262779831886292 -0.025738999247550964 -0.7791749835014343 0.15180400013923645 0.037151999771595 -0.987712025642395
          0.06975799798965454 -0.044968001544475555 -0.9965500235557556 0.39921799302101135 0.04508600011467934 -0.9157469868659973
          -0.18050800263881683 -0.04767899960279465 -0.9824169874191284 -0.18332000076770782 0.01294500008225441 -0.9829679727554321
          0.1641640067100525 0.04883800074458122 -0.9852229952812195 -0.054350998252630234 0.04507499933242798 -0.9975039958953857
          -0.6622800230979919 -0.005235999822616577 -0.7492380142211914 -0.6237519979476929 -0.005243000108748674 -0.781603991985321
          -0.7054830193519592 -0.004904999863356352 -0.7087100148200989 -0.713612973690033 -0.03666500002145767 -0.6995800137519836
          -0.6068180203437805 -0.018519999459385872 -0.7946249842643738 -0.500931978225708 -0.01833599992096424 -0.865293025970459
          -0.7466779947280884 -0.020410999655723572 -0.6648730039596558 -0.7652450203895569 -0.031178999692201614 -0.6429839730262756
          -0.3559119999408722 0.004598999861627817 -0.9345080256462097 -0.4255959987640381 -0.04725300148129463 -0.9036790132522583
          0.4225499927997589 -0.005555000156164169 -0.9063230156898499 0.9489070177078247 -0.017249999567866325 -0.31508299708366394
          -0.28692901134490967 -0.06903699785470963 -0.9554610252380371 -0.731607973575592 -0.03641499951481819 -0.6807519793510437
          -0.5591229796409607 -0.06741300225257874 -0.8263390064239502 -0.6677160263061523 -0.03813499957323074 -0.7434390187263489
          -0.7349979877471924 -0.02569199912250042 -0.6775829792022705 0.4395290017127991 0.05423400178551674 -0.896589994430542
          0.43988698720932007 -0.0005099999834783375 -0.898052990436554 0.3130500018596649 -0.026739999651908875 -0.9493600130081177
          0.2761180102825165 -0.02814899943768978 -0.9607120156288147 -0.08020400255918503 -0.08304700255393982 -0.9933130145072937
          0.24938799440860748 -0.05187800154089928 -0.9670130014419556 0.6143730282783508 0.014740999788045883 -0.7888780236244202
          0.6801369786262512 0.06769400089979172 -0.7299529910087585 -0.1262660026550293 0.04229399934411049 -0.9910939931869507
          0.05488799884915352 0.08011899888515472 -0.9952729940414429 0.5403479933738708 0.06681899726390839 -0.8387839794158936
          0.40196099877357483 0.1109749972820282 -0.9089069962501526 -0.6359130144119263 -0.01042100042104721 -0.7716900110244751
          -0.8447909951210022 0.021338999271392822 -0.5346710085868835 -0.7997980117797852 0.009655999951064587 -0.6001920104026794
          -0.7101290225982666 0.012853999622166157 -0.7039539813995361 -0.7988290190696716 -0.02416200004518032 -0.6010730266571045
          -0.5322380065917969 -0.005249999929219484 -0.8465790152549744 -0.5172359943389893 0.011486999690532684 -0.8557659983634949
          -0.8540120124816895 0.006306000053882599 -0.5202159881591797 -0.8815479874610901 -0.013647000305354595 -0.4718970060348511
          -0.5759760141372681 0.011872000060975552 -0.8173800110816956 -0.4987269937992096 0.03893499821424484 -0.865884006023407
          -0.3105219900608063 0.04602900147438049 -0.9494510293006897 -0.10057199746370316 0.07375399768352509 -0.9921919703483582
          0.40433600544929504 -0.05008399859070778 -0.913237988948822 -0.41118600964546204 -0.08300899714231491 -0.9077640175819397
          -0.7727620005607605 -0.021578000858426094 -0.6343290209770203 -0.6424890160560608 -0.07025200128555298 -0.7630680203437805
          -0.6048179864883423 -0.057479001581668854 -0.7942860126495361 -0.8267660140991211 -0.006519999820739031 -0.5625079870223999
          -0.7985100150108337 -0.06468400359153748 -0.5984960198402405 -0.8288300037384033 -0.02900099940598011 -0.5587490200996399
          -0.7901620268821716 -0.00808900035917759 -0.6128450036048889 0.6264520287513733 0.08094699680805206 -0.7752450108528137
          0.5062699913978577 -0.0064860000275075436 -0.8623510003089905 -0.16569599509239197 -0.1057090014219284 -0.9804949760437012
          -0.030125999823212624 -0.08401300013065338 -0.9960089921951294 0.4834359884262085 -0.03403199836611748 -0.8747180104255676
          0.43182700872421265 -0.04430500045418739 -0.9008679986000061 0.26502498984336853 -0.07487600296735764 -0.961329996585846
          0.6765879988670349 0.012335999868810177 -0.7362579703330994 0.747734010219574 0.015900999307632446 -0.6638079881668091
          0.7855619788169861 0.03874000161886215 -0.6175690293312073 0.7467610239982605 0.08824200183153152 -0.6592119932174683
          0.8081099987030029 0.06487499922513962 -0.5854470133781433 -0.017976999282836914 0.07956500351428986 -0.9966679811477661
          0.20058900117874146 0.10778900235891342 -0.9737280011177063 0.6454129815101624 0.08453600108623505 -0.7591410279273987
          0.7114930152893066 0.09297499805688858 -0.6965150237083435 0.49417099356651306 0.11302799731492996 -0.861985981464386
          -0.9005020260810852 -0.014378000050783157 -0.4346129894256592 -0.9361519813537598 0.014623000286519527 -0.3512920141220093
          -0.9657620191574097 0.0011690000537782907 -0.259429007768631 -0.7961750030517578 0.0149940000846982 -0.6048809885978699
          -0.8546820282936096 0.004497000016272068 -0.5191329717636108 -0.6769090294837952 0.014185000211000443 -0.7359300255775452
          -0.7037960290908813 0.005198999773710966 -0.7103829979896545 -0.7812960147857666 0.013333000242710114 -0.6240180134773254
          -0.8847410082817078 -0.008531000465154648 -0.46600499749183655 -0.6286050081253052 0.015573999844491482 -0.7775689959526062
          0.41693800687789917 0.014155000448226929 -0.9088249802589417 0.4005649983882904 0.0004220000118948519 -0.916267991065979
          -0.9376509785652161 0.01511400006711483 -0.34724900126457214 -0.9671869874000549 -0.022038999944925308 -0.2531059980392456
          -0.9791319966316223 -0.009216999635100365 -0.203016996383667 -0.6348609924316406 0.017525000497698784 -0.7724279761314392
          -0.6325299739837646 0.02464599907398224 -0.7741429805755615 -0.4932030141353607 0.027595000341534615 -0.8694769740104675
          -0.534026026725769 0.07402200251817703 -0.8422210216522217 -0.40074700117111206 0.08062700182199478 -0.912634015083313
          -0.2458609938621521 0.09216400235891342 -0.964913010597229 -0.014004000462591648 0.09223499894142151 -0.9956390261650085
          0.24899399280548096 0.10349799692630768 -0.9629589915275574 0.24870100617408752 0.11245399713516235 -0.9620299935340881
          -0.5224649906158447 -0.0853710025548935 -0.8483759760856628 -0.5796250104904175 -0.0742190033197403 -0.8114960193634033
          -0.2830269932746887 -0.08588500320911407 -0.9552590250968933 -0.682424008846283 -0.061879001557826996 -0.7283329963684082
          -0.8981209993362427 0.010480999946594238 -0.43962299823760986 -0.9085850119590759 0.0017590000061318278 -0.4176959991455078
          -0.8357040286064148 0.008559999987483025 -0.5491139888763428 -0.871815025806427 -0.01826000027358532 -0.48949500918388367
          -0.9578660130500793 0.0038590000476688147 -0.28718799352645874 -0.7790579795837402 -0.07067800313234329 -0.6229550242424011
          -0.8765180110931396 -0.07149700075387955 -0.47602900862693787 -0.9030590057373047 -0.036263998597860336 -0.42798399925231934
          0.6289650201797485 -0.01839499920606613 -0.7772160172462463 0.7115529775619507 -0.030880000442266464 -0.7019529938697815
          0.6710429787635803 -0.0059090000577270985 -0.7413949966430664 0.7152969837188721 -0.024454999715089798 -0.6983919739723206
          -0.19355499744415283 -0.10603500157594681 -0.9753429889678955 0.04496200010180473 -0.07297199964523315 -0.9963200092315674
          0.6401209831237793 -0.04231499880552292 -0.7671080231666565 0.4973770081996918 -0.06424800306558609 -0.8651520013809204
          0.4059619903564453 -0.06637699902057648 -0.9114760160446167 0.4911539852619171 -0.07691899687051773 -0.8676699995994568
          0.28738999366760254 -0.09351799637079239 -0.953236997127533 0.3980500102043152 -0.08132799714803696 -0.913752019405365
          0.8603870272636414 -0.009697999805212021 -0.509548008441925 0.8412119746208191 0.004778000060468912 -0.5406839847564697
          0.8974829912185669 0.05722000077366829 -0.4373219907283783 0.8348230123519897 0.060965001583099365 -0.5471320152282715
          0.8055660128593445 0.09581299871206284 -0.5847079753875732 0.8380320072174072 0.05863200128078461 -0.5424609780311584
          0.806098997592926 0.07710999995470047 -0.5867360234260559 0.8980960249900818 0.06378600001335144 -0.43514901399612427
          0.7481480240821838 0.06985999643802643 -0.6598439812660217 0.6985570192337036 0.10749299824237823 -0.7074339985847473
          0.5874729752540588 0.11315999925136566 -0.8012930154800415 -0.9100559949874878 -0.0010509999701753259 -0.41448500752449036
          -0.9238269925117493 -0.01218399964272976 -0.3826160132884979 -0.936149001121521 -0.01856599934399128 -0.3511129915714264
          -0.9999729990959167 -0.00737799983471632 0.0005799999926239252 -0.9799479842185974 0.00011200000153621659 0.19925400614738464
          -0.996641993522644 -0.0014120000414550304 -0.08186399936676025 -0.9768549799919128 0.004147999919950962 -0.21386300027370453
          -0.8918449878692627 -0.0019320000428706408 -0.45233601331710815 -0.5428799986839294 0.008601999841630459 -0.8397660255432129
          -0.7069979906082153 0.023229999467730522 -0.7068340182304382 -0.8095229864120483 0.01839599944651127 -0.5867999792098999
          -0.8688870072364807 0.020407000556588173 -0.49459001421928406 -0.9568819999694824 -0.00469700014218688 -0.2904370129108429
          -0.9770699739456177 -0.020481999963521957 -0.21193000674247742 0.410427987575531 0.029745999723672867 -0.911408007144928
          -0.9930369853973389 -0.023079000413417816 -0.11551599949598312 -0.9969099760055542 -0.03167400136590004 0.07188499718904495
          -0.6824399828910828 0.03440000116825104 -0.730131983757019 -0.6538119912147522 0.029221000149846077 -0.7560930252075195
          -0.6756280064582825 0.058719001710414886 -0.7348999977111816 -0.5132690072059631 0.0748789981007576 -0.8549550175666809
          -0.5434510111808777 0.11406499892473221 -0.8316550254821777 -0.38487300276756287 0.10690700262784958 -0.9167569875717163
          -0.06461600214242935 0.11173199862241745 -0.9916350245475769 -0.2576949894428253 0.12840299308300018 -0.957656979560852
          0.3121750056743622 0.11662500351667404 -0.9428390264511108 0.49413999915122986 0.08782199770212173 -0.8649349808692932
          0.48138299584388733 0.10343299806118011 -0.870386004447937 -0.5119739770889282 -0.08204100281000137 -0.8550739884376526
          -0.6420729756355286 -0.04494599997997284 -0.7653250098228455 -0.33756598830223083 -0.10335300117731094 -0.9356110095977783
          -0.9664549827575684 -0.0013089999556541443 -0.2568329870700836 -0.9299089908599854 0.013794999569654465 -0.3675310015678406
          -0.9733359813690186 0.028380999341607094 -0.22762000560760498 -0.9994860291481018 0.023711999878287315 0.02159300073981285
          -0.977849006652832 0.03522999957203865 -0.20632599294185638 -0.9207289814949036 -0.00827299989759922 -0.39011600613594055
          -0.9783869981765747 0.024178000167012215 0.20536300539970398 -0.9987959861755371 0.030503999441862106 0.03842199966311455
          -0.8767560124397278 0.027835000306367874 -0.48012998700141907 -0.9304460287094116 0.013669000007212162 -0.36617401242256165
          -0.9059029817581177 -0.09473100304603577 -0.41275399923324585 -0.7504130005836487 -0.11602699756622314 -0.6507059931755066
          -0.6266180276870728 -0.12284699827432632 -0.7695840001106262 -0.9427670240402222 -0.05800199881196022 -0.32836800813674927
          -0.9533159732818604 -0.020886000245809555 -0.30125200748443604 0.7823539972305298 -0.021056000143289566 -0.6224780082702637
          0.8536180257797241 -0.010967000387609005 -0.5207849740982056 0.8166549801826477 -0.0019660000689327717 -0.5771229863166809
          0.8293480277061462 -0.04500100016593933 -0.5569170117378235 -0.36684900522232056 -0.12681099772453308 -0.9215970039367676
          -0.3202489912509918 -0.14199699461460114 -0.9366310238838196 -0.02404399961233139 -0.12108200043439865 -0.9923509955406189
          0.6346909999847412 -0.06699500232934952 -0.7698559761047363 0.7804880142211914 -0.05260999873280525 -0.6229529976844788
          0.687936007976532 -0.07857199758291245 -0.7215059995651245 0.6980609893798828 -0.11248700320720673 -0.7071470022201538
          0.4745059907436371 -0.09370999783277512 -0.875249981880188 0.16751299798488617 -0.15791000425815582 -0.9731410145759583
          0.5278869867324829 -0.1379539966583252 -0.8380360007286072 0.47579801082611084 -0.16223399341106415 -0.8644629716873169
          0.9181830286979675 0.02252900041639805 -0.3955169916152954 0.9267489910125732 0.02246199920773506 -0.3750079870223999
          0.9840080142021179 0.061128001660108566 -0.16730700433254242 0.9848060011863708 0.08177000284194946 -0.15320099890232086
          0.8040339946746826 0.09767799824476242 -0.5865049958229065 0.8686879873275757 0.07150699943304062 -0.49017098546028137
          0.9468039870262146 0.08431799709796906 -0.3105680048465729 0.9834070205688477 0.04874299839138985 -0.1747409999370575
          0.8200790286064148 0.13408899307250977 -0.556318998336792 0.7321619987487793 0.10717900097370148 -0.6726449728012085
          0.5972440242767334 0.11913999915122986 -0.7931609749794006 -0.971697986125946 -0.040456000715494156 0.23273800313472748
          -0.894910991191864 -0.032586000859737396 0.44505301117897034 -0.9964680075645447 0.012547999620437622 0.08303000032901764
          -0.869376003742218 -0.016227999702095985 0.49388399720191956 -0.9157689809799194 -0.00008299999899463728 0.4017060101032257
          -0.8711199760437012 -0.012912999838590622 0.4909000098705292 -0.9614830017089844 -0.003654999891296029 0.2748410105705261
          -0.995822012424469 0.017714999616146088 -0.08958200365304947 -0.8001469969749451 0.04050000011920929 -0.5984359979629517
          -0.8188899755477905 0.02879600040614605 -0.5732280015945435 -0.8965340256690979 -0.00004600000102072954 -0.4429750144481659
          -0.9990569949150085 -0.01066999975591898 0.04208900034427643 -0.9644629955291748 0.0031330001074820757 -0.26420098543167114
          -0.9942110180854797 -0.0020149999763816595 0.1074260026216507 -0.9539790153503418 -0.007255000062286854 0.2997860014438629
          -0.9404829740524292 -0.038610998541116714 0.3376390039920807 -0.7160469889640808 0.03012000024318695 -0.6974020004272461
          -0.6797410249710083 0.063400998711586 -0.7307069897651672 -0.5561010241508484 0.05213800072669983 -0.8294780254364014
          -0.7223230004310608 0.04568000137805939 -0.6900449991226196 -0.5812240242958069 0.06687500327825546 -0.8109909892082214
          -0.7389960289001465 0.027876000851392746 -0.6731330156326294 -0.6115220189094543 0.10250599682331085 -0.7845590114593506
          -0.4606130123138428 0.0840430036187172 -0.8836129903793335 -0.6421329975128174 0.0980520024895668 -0.7602970004081726
          -0.3545750081539154 0.09689199924468994 -0.9299939870834351 -0.08519600331783295 0.14858600497245789 -0.9852229952812195
          0.21199800074100494 0.17815199494361877 -0.9608950018882751 -0.34570398926734924 0.11817999929189682 -0.9308720231056213
          -0.20515599846839905 0.14986999332904816 -0.9671869874000549 -0.13557100296020508 0.13962499797344208 -0.9808800220489502
          0.5632460117340088 0.19114600121974945 -0.8038759827613831 0.38852399587631226 0.17842300236225128 -0.9039989709854126
          -0.43648698925971985 -0.11633700132369995 -0.8921570181846619 -0.9895349740982056 0.03205600008368492 -0.14068500697612762
          -0.9582409858703613 0.023305000737309456 0.28501200675964355 -0.9971349835395813 0.03199699893593788 0.06854800134897232
          0.15360000729560852 0.0971980020403862 -0.9833409786224365 0.9167640209197998 -0.02718299999833107 -0.398501992225647
          0.8437250256538391 0.02074499987065792 -0.5363739728927612 -0.9705510139465332 0.013447999954223633 0.24051900207996368
          -0.8904550075531006 0.03477500006556511 0.45374101400375366 -0.8461530208587646 0.0045900000259280205 0.5329200029373169
          -0.8778089880943298 0.011378999799489975 0.478875994682312 -0.961201012134552 0.05113799870014191 0.2710669934749603
          -0.946042001247406 0.02912200056016445 0.322733998298645 -0.8754670023918152 -0.13976100087165833 -0.46262800693511963
          -0.9649140238761902 -0.06111200153827667 -0.25535398721694946 -0.9802340269088745 -0.07646899670362473 -0.18246600031852722
          -0.9324899911880493 -0.129721999168396 -0.33709898591041565 -0.8753150105476379 -0.11892899870872498 -0.46869999170303345
          -0.5147119760513306 -0.11685200035572052 -0.8493630290031433 -0.5406060218811035 -0.11640200018882751 -0.833184003829956
          -0.7113900184631348 -0.15514600276947021 -0.6854590177536011 -0.5081239938735962 -0.13321299850940704 -0.8509200215339661
          -0.850426971912384 -0.11943800002336502 -0.5123559832572937 -0.9584119915962219 0.028651999309659004 -0.2839449942111969
          -0.998337984085083 -0.0035329998936504126 -0.0575219988822937 -0.9833469986915588 -0.04396500065922737 -0.1763399988412857
          0.8998519778251648 -0.0035280000884085894 -0.4361819922924042 0.97052401304245 0.01668200083076954 -0.24042800068855286
          -0.26884400844573975 -0.16405099630355835 -0.9491099715232849 -0.01002500019967556 -0.14645299315452576 -0.9891669750213623
          0.8987590074539185 -0.046167999505996704 -0.43600699305534363 0.8424550294876099 -0.12443800270557404 -0.5241990089416504
          0.6722850203514099 -0.16601699590682983 -0.7214369773864746 0.7780879735946655 -0.17042900621891022 -0.6045929789543152
          0.6439250111579895 -0.11098799854516983 -0.7569959759712219 0.28884899616241455 -0.21227900683879852 -0.9335439801216125
          0.22211800515651703 -0.17920400202274323 -0.9584100246429443 0.44732600450515747 -0.1718059927225113 -0.8777139782905579
          0.5391770005226135 -0.20215199887752533 -0.8175709843635559 0.9977160096168518 0.05982000008225441 -0.03138599917292595
          0.9817669987678528 0.1141820028424263 0.15197500586509705 0.9850580096244812 0.0648920014500618 0.1595280021429062
          0.9970790147781372 0.07625800371170044 0.0042420001700520515 0.9892600178718567 0.09092599898576736 0.11444299668073654
          0.8631790280342102 0.13188999891281128 -0.48736700415611267 0.9169170260429382 0.025638999417424202 -0.3982529938220978
          0.9214569926261902 0.07809600234031677 -0.38054901361465454 0.9233620166778564 0.10206600278615952 -0.3701139986515045
          0.9947130084037781 0.08362100273370743 -0.05960899963974953 0.9531189799308777 0.03172300010919571 -0.3009270131587982
          0.9932680130004883 0.1085280030965805 0.04050400108098984 0.9937869906425476 0.11128100007772446 0.00184599997010082
          0.8349109888076782 0.13697800040245056 -0.533066987991333 0.8938909769058228 0.15915100276470184 -0.41908299922943115
          0.893917977809906 0.13826900720596313 -0.4263699948787689 0.8889150023460388 0.14791899919509888 -0.4335309863090515
          0.8029850125312805 0.16023799777030945 -0.574055016040802 0.7151110172271729 0.1449670046567917 -0.6838139891624451
          -0.7414820194244385 -0.011235999874770641 0.6708790063858032 -0.7772759795188904 -0.019429000094532967 0.6288599967956543
          -0.7794589996337891 -0.0005009999731555581 0.6264539957046509 -0.9592450261116028 0.010484999977052212 0.282382994890213
          -0.9010109901428223 0.009302999824285507 0.433696985244751 -0.8968799710273743 0.028131000697612762 0.44137799739837646
          -0.6514390110969543 -0.009712999686598778 0.7586389780044556 -0.7144079804420471 -0.003100000089034438 0.6997219920158386
          -0.7747849822044373 0.010440000332891941 0.6321390271186829 -0.790369987487793 0.023893000558018684 -0.6121630072593689
          -0.8337460160255432 0.01707099936902523 -0.5518850088119507 -0.8531619906425476 0.033160001039505005 -0.5205919742584229
          -0.8286330103874207 0.009352000430226326 -0.5597149729728699 -0.8946359753608704 -0.0013520000502467155 -0.44679298996925354
          -0.9996370077133179 0.011549999937415123 -0.02434000000357628 -0.9754289984703064 -0.01742600090801716 0.21962200105190277
          -0.9327710270881653 -0.009115999564528465 0.3603529930114746 -0.9367190003395081 0.041374001652002335 0.34762799739837646
          -0.9283499717712402 0.017024999484419823 -0.37131598591804504 -0.8351160287857056 0.011605000123381615 0.5499510169029236
          -0.8848680257797241 0.0070130000822246075 0.46578800678253174 -0.8093230128288269 0.018286999315023422 0.5870800018310547
          0.7470319867134094 0.05127999931573868 -0.6628069877624512 -0.5984100103378296 0.09725400060415268 -0.7952650189399719
          -0.7018300294876099 0.10596799850463867 -0.7044190168380737 -0.6001589894294739 0.0836229994893074 -0.7954970002174377
          0.3734239935874939 0.04336800053715706 -0.9266459941864014 -0.8175479769706726 0.04439200088381767 -0.5741469860076904
          -0.8447679877281189 0.00827800016850233 -0.53507000207901 -0.6444799900054932 0.059765998274087906 -0.7622810006141663
          -0.4751630127429962 0.14598800241947174 -0.8677020072937012 0.08503799885511398 0.18188799917697906 -0.9796350002288818
          0.5295180082321167 0.2503350079059601 -0.8105210065841675 0.3852759897708893 0.23497000336647034 -0.8923850059509277
          0.3968600034713745 0.2220260053873062 -0.8906210064888 -0.287092000246048 0.17133000493049622 -0.9424570202827454
          -0.3797059953212738 0.1535869985818863 -0.9122689962387085 0.04607599973678589 0.20093899965286255 -0.9785190224647522
          0.009777000173926353 0.16498799622058868 -0.9862470030784607 -0.1479949951171875 0.17101100087165833 -0.9740909934043884
          0.7341110110282898 0.24163499474525452 -0.6345810294151306 -0.8622869849205017 0.030710000544786453 0.5054889917373657
          -0.9668059945106506 0.05119499936699867 0.25033101439476013 -0.8985880017280579 0.0330980010330677 0.43754300475120544
          -0.9342259764671326 0.05499599874019623 0.3524169921875 -0.7187070250511169 0.01769999973475933 0.6950880289077759
          -0.7899789810180664 0.004486999940127134 0.6131179928779602 -0.7132459878921509 -0.008515999652445316 0.7008619904518127
          -0.7901189923286438 0.016690000891685486 0.6127259731292725 -0.8883470296859741 0.0639209970831871 0.4547019898891449
          -0.9787999987602234 -0.018007999286055565 -0.20402400195598602 -0.9933729767799377 -0.04725300148129463 -0.10477200150489807
          -0.9837750196456909 -0.1032399982213974 -0.14672599732875824 -0.9958369731903076 -0.06605599820613861 -0.06280899792909622
          -0.83194899559021 -0.16607899963855743 -0.5294129848480225 -0.9652249813079834 -0.14664700627326965 -0.2164130061864853
          -0.9189670085906982 -0.17598800361156464 -0.35288500785827637 -0.8604480028152466 -0.18700799345970154 -0.47397899627685547
          -0.8436579704284668 -0.17095999419689178 -0.5089340209960938 -0.49765199422836304 -0.1773959994316101 -0.8490430116653442
          -0.6824809908866882 -0.1915690004825592 -0.7053509950637817 -0.5725470185279846 -0.1716039925813675 -0.8017119765281677
          -0.9700850248336792 0.00861399993300438 0.24261200428009033 -0.9992849826812744 0.004292000085115433 0.0375639982521534
          -0.9877790212631226 0.015313999727368355 -0.15510700643062592 0.994143009185791 0.009752999991178513 -0.10762900114059448
          0.9952009916305542 0.05345600098371506 0.0819609984755516 -0.4786840081214905 -0.19474799931049347 -0.856115996837616
          -0.22605000436306 -0.19942300021648407 -0.9534839987754822 -0.059790000319480896 -0.20331799983978271 -0.9772859811782837
          0.0773790031671524 -0.22301100194454193 -0.9717400074005127 0.9284729957580566 -0.04099399968981743 -0.3691290020942688
          0.9694610238075256 -0.008186000399291515 -0.2451069951057434 0.9202650189399719 -0.1132809966802597 -0.37453800439834595
          0.9021009802818298 -0.17209699749946594 -0.39572200179100037 0.9466469883918762 -0.11970300227403641 -0.29921698570251465
          0.8034999966621399 -0.21996599435806274 -0.5531740188598633 0.6556130051612854 -0.2840389907360077 -0.6996380090713501
          0.38029399514198303 -0.16048400104045868 -0.9108359813690186 0.39506301283836365 -0.1649560034275055 -0.9037230014801025
          0.2893129885196686 -0.24732400476932526 -0.9247320294380188 0.4993540048599243 -0.1538189947605133 -0.8526350259780884
          0.46511098742485046 -0.16389100253582 -0.8699489831924438 0.5131919980049133 -0.2902649939060211 -0.8077009916305542
          0.408053994178772 -0.2554680109024048 -0.8764860033988953 0.9553080201148987 0.07481999695301056 0.2859880030155182
          0.9199479818344116 0.09456399828195572 0.38046500086784363 0.9433199763298035 0.09561000019311905 0.31781500577926636
          0.8769490122795105 0.11446499824523926 0.4667539894580841 0.9367219805717468 0.06460300087928772 0.3440600037574768
          0.9559019804000854 0.08117999881505966 0.282243013381958 0.9177889823913574 0.1290919929742813 -0.3754970133304596
          0.978056013584137 0.12733300030231476 -0.164900004863739 0.9929530024528503 0.04446500167250633 -0.10985299944877625
          0.934935986995697 0.10929399728775024 -0.33756300806999207 0.9786440134048462 0.08665399998426437 0.1864050030708313
          0.9783120155334473 0.10386999696493149 0.17921200394630432 0.9479560256004333 0.11179400235414505 0.29812899231910706
          0.8873819708824158 0.15583600103855133 -0.4338989853858948 0.921779990196228 0.1281999945640564 -0.3659040033817291
          0.938513994216919 0.130499005317688 -0.31962600350379944 0.9050859808921814 0.16158899664878845 -0.39333000779151917
          0.9635350108146667 0.14027300477027893 -0.2278680056333542 0.9661309719085693 0.15105800330638885 -0.2092210054397583
          0.8830429911613464 0.19536499679088593 -0.42669299244880676 0.8038049936294556 0.2391050010919571 -0.5447250008583069
          0.9829130172729492 -0.0046430001966655254 0.18401099741458893 0.7517359852790833 -0.009584000334143639 0.6593949794769287
          -0.6207510232925415 -0.004991000052541494 0.7839919924736023 -0.6415070295333862 -0.017412999644875526 0.7669190168380737
          -0.845255970954895 0.01485500019043684 0.5341560244560242 -0.7610309720039368 -0.009058999828994274 0.6486520171165466
          -0.858659029006958 0.03291599825024605 0.5114889740943909 -0.5047789812088013 -0.00926399976015091 0.86319899559021
          -0.5889019966125488 -0.029464999213814735 0.8076670169830322 -0.4954800009727478 -0.014697999693453312 0.868494987487793
          -0.5288450121879578 0.006171000190079212 0.8486959934234619 -0.6400589942932129 -0.012400999665260315 0.7682260274887085
          -0.6678789854049683 -0.004755000118166208 0.744255006313324 -0.9746440052986145 0.0476979985833168 0.21861599385738373
          -0.9835709929466248 0.03042599931359291 0.17793700098991394 -0.9724649786949158 0.047456998378038406 -0.22816699743270874
          -0.9959279894828796 0.07660699635744095 0.047529999166727066 -0.8878290057182312 0.0038850000128149986 0.46015599370002747
          -0.9339699745178223 0.05898100137710571 -0.35245200991630554 -0.8926939964294434 0.05637099966406822 -0.4471229910850525
          -0.6478490233421326 -0.0002800000074785203 0.7617679834365845 -0.6217960119247437 -0.023087000474333763 0.7828390002250671
          -0.7573480010032654 0.00889699999243021 0.6529499888420105 -0.7440059781074524 0.014248999767005444 0.668021023273468
          -0.797980010509491 0.012206999585032463 0.6025599837303162 0.7560459971427917 0.022955000400543213 0.6541150212287903
          0.37816500663757324 0.10135199874639511 -0.9201729893684387 -0.5834720134735107 0.13977199792861938 -0.8000149726867676
          -0.7334650158882141 0.16444900631904602 -0.6595339775085449 -0.7541360259056091 0.1123879998922348 -0.6470299959182739
          -0.7418090105056763 0.0628879964351654 -0.6676560044288635 -0.64826500415802 0.21644100546836853 -0.7300040125846863
          -0.7155609726905823 0.07020299881696701 -0.6950129866600037 -0.9051600098609924 0.06476099789142609 -0.42010900378227234