<?xml version="1.0"?>
<VTKFile type="PolyData" version="0.1" byte_order="LittleEndian" header_type="UInt32" compressor="vtkZLibDataCompressor">
  <PolyData>
    <Piece NumberOfPoints="3280" NumberOfVerts="0" NumberOfLines="0" NumberOfStrips="0" NumberOfPolys="6556">
      <PointData Normals="Normals">
        <DataArray type="Float32" Name="Normals" NumberOfComponents="3" format="ascii" RangeMin="0.9999992459785524" RangeMax="1.0000007453636746">
          -0.5443300008773804 -0.0164170004427433 -0.8387110233306885 -0.5528370141983032 0.026086000725626945 -0.832880973815918
          -0.6829689741134644 0.04273099824786186 -0.7291970252990723 -0.7370790243148804 0.0009050000226125121 -0.6758059859275818
          -0.36346399784088135 -0.03397100046277046 -0.9309890270233154 -0.6194700002670288 -0.04573500156402588 -0.7836869955062866
          -0.4674670100212097 -0.04419900104403496 -0.8829050064086914 -0.49890199303627014 0.015425999648869038 -0.8665210008621216
          -0.8181489706039429 0.06479799747467041 -0.5713430047035217 -0.8393319845199585 0.06924799829721451 -0.5391899943351746
          -0.6979939937591553 0.049963999539613724 -0.7143589854240417 -0.7430980205535889 0.06537599861621857 -0.6659820079803467
          -0.6809830069541931 -0.043407998979091644 -0.7310109734535217 -0.8043789863586426 0.025165999308228493 -0.5935829877853394
          -0.8544579744338989 0.06492699682712555 -0.5154470205307007 -0.19905200600624084 -0.028429999947547913 -0.9795759916305542
          -0.2913669943809509 -0.09379400312900543 -0.9520019888877869 0.05556999891996384 -0.0648220032453537 -0.9963480234146118
          -0.5177890062332153 -0.04855300113558769 -0.8541290163993835 -0.5105530023574829 0.011432000435888767 -0.8597699999809265
          -0.1849379986524582 -0.019254999235272408 -0.9825620055198669 -0.3913800120353699 0.017973000183701515 -0.9200530052185059
          -0.8737800121307373 0.09290999919176102 -0.4773640036582947 -0.849556028842926 0.08446600288152695 -0.520691990852356
          -0.8991990089416504 0.10284300148487091 -0.4252830147743225 -0.908752977848053 0.07352399826049805 -0.4108070135116577
          -0.840507984161377 0.06766600161790848 -0.5375570058822632 -0.767536997795105 0.04518299922347069 -0.6394100189208984
          -0.924439013004303 0.09699700027704239 -0.3687880039215088 -0.935696005821228 0.09071499854326248 -0.3409459888935089
          -0.6541829705238342 0.03770099952816963 -0.7553960084915161 -0.7562339901924133 0.061110999435186386 -0.6514409780502319
          0.2638530135154724 0.17078199982643127 -0.9493229985237122 0.9702420234680176 0.019005000591278076 -0.24139200150966644
          -0.6100530028343201 -0.048353999853134155 -0.7908840179443359 -0.918720006942749 0.07788900285959244 -0.3871519863605499
          -0.8156800270080566 0.009531999938189983 -0.5784249901771545 -0.8829569816589355 0.062185000628232956 -0.4653170108795166
          -0.9189220070838928 0.08906400203704834 -0.38425299525260925 0.10091599822044373 -0.0627949982881546 -0.9929109811782837
          0.09167599678039551 -0.11665800213813782 -0.9889320135116577 -0.047501999884843826 -0.12017899751663208 -0.9916149973869324
          -0.08576499670743942 -0.11497599631547928 -0.9896590113639832 -0.43494099378585815 -0.10262399911880493 -0.8945919871330261
          -0.11653099954128265 -0.1335189938545227 -0.9841709733009338 0.29320698976516724 -0.1306920051574707 -0.9470739960670471
          0.3832150101661682 -0.08902399986982346 -0.919359028339386 -0.455953985452652 0.02911599911749363 -0.8895270228385925
          -0.28412699699401855 0.031856000423431396 -0.9582570195198059 0.21612100303173065 -0.06745000183582306 -0.9740340113639832
          0.07126499712467194 -0.0004360000020824373 -0.9974570274353027 -0.8783599734306335 0.12245900183916092 -0.4620470106601715
          -0.9625170230865479 0.16130800545215607 -0.21804000437259674 -0.945838987827301 0.13892899453639984 -0.29340600967407227
          -0.8989279866218567 0.12126100063323975 -0.4209809899330139 -0.950859010219574 0.10554499924182892 -0.2910799980163574
          -0.7877069711685181 0.06466399878263474 -0.6126469969749451 -0.7966070175170898 0.11827699840068817 -0.5928130149841309
          -0.9684600234031677 0.14878399670124054 -0.1998720020055771 -0.9802539944648743 0.13621899485588074 -0.14333899319171906
          -0.8150290250778198 0.09077700227499008 -0.5722650289535522 -0.7562969923019409 0.10095299780368805 -0.6463930010795593
          -0.6107119917869568 0.06923600286245346 -0.7888200283050537 -0.427388995885849 0.05508499965071678 -0.9023879766464233
          0.2390040010213852 0.12838999927043915 -0.9624930024147034 -0.7102389931678772 -0.0368259996175766 -0.702996015548706
          -0.9380249977111816 0.10193599760532379 -0.33123698830604553 -0.8709020018577576 0.02473199926316738 -0.49083301424980164
          -0.8449490070343018 0.029025999829173088 -0.5340579748153687 -0.960220992565155 0.1295509934425354 -0.24736900627613068
          -0.9563530087471008 0.06579399853944778 -0.28470900654792786 -0.9645119905471802 0.10800500214099884 -0.24094000458717346
          -0.9443309903144836 0.11920499801635742 -0.30664101243019104 0.32006800174713135 -0.06757300347089767 -0.9449819922447205
          0.16433900594711304 -0.1337669938802719 -0.977292001247406 -0.5131549835205078 -0.10819000005722046 -0.8514500260353088
          -0.3898780047893524 -0.11316899955272675 -0.9138860106468201 0.13441899418830872 -0.1569029986858368 -0.9784240126609802
          0.07603500038385391 -0.15815900266170502 -0.9844819903373718 -0.10392600297927856 -0.15881499648094177 -0.9818230271339417
          0.3686450123786926 -0.1429319977760315 -0.9185159802436829 0.46015700697898865 -0.15021300315856934 -0.8750380277633667
          0.5149880051612854 -0.13330799341201782 -0.8467680215835571 0.47276800870895386 -0.07893700152635574 -0.8776440024375916
          0.5513240098953247 -0.11071600019931793 -0.826911985874176 -0.3519369959831238 0.04503399878740311 -0.934939980506897
          -0.13757699728012085 0.03215999901294708 -0.98996901512146 0.34374698996543884 -0.06700100004673004 -0.9366689920425415
          0.4279940128326416 -0.06900399923324585 -0.9011440277099609 0.17315900325775146 -0.014201999641954899 -0.9847919940948486
          -0.9849209785461426 0.140501007437706 -0.10094799846410751 -0.9837939739227295 0.17868800461292267 -0.014852000400424004
          -0.9811969995498657 0.17448599636554718 0.08250600099563599 -0.9432439804077148 0.14330099523067474 -0.2995940148830414
          -0.9690049886703491 0.14729000627994537 -0.19832900166511536 -0.8793150186538696 0.11505500227212906 -0.4621340036392212
          -0.8965719938278198 0.11230599880218506 -0.42842400074005127 -0.9365429878234863 0.13809500634670258 -0.3222079873085022
          -0.980292022228241 0.14210599660873413 -0.13723799586296082 -0.8490430116653442 0.10578200221061707 -0.5176249742507935
          0.26019400358200073 0.20629499852657318 -0.9432610273361206 0.2421090006828308 0.21107900142669678 -0.9470099806785583
          -0.9836850166320801 0.17958499491214752 -0.010633000172674656 -0.9841319918632507 0.1522279977798462 0.09115800261497498
          -0.9755309820175171 0.16888700425624847 0.14076900482177734 -0.852711021900177 0.10907799750566483 -0.5108669996261597
          -0.84996497631073 0.11564099788665771 -0.5139899849891663 -0.7809540033340454 0.13925699889659882 -0.6088669896125793
          -0.7747750282287598 0.14295099675655365 -0.6158639788627625 -0.6754090189933777 0.12159000337123871 -0.7273510098457336
          -0.5488219857215881 0.10167499631643295 -0.8297320008277893 -0.3459010124206543 0.056905001401901245 -0.9365440011024475
          -0.08992400020360947 0.019224999472498894 -0.9957630038261414 -0.08836600184440613 0.02798300050199032 -0.9956949949264526
          -0.7924730181694031 -0.015925999730825424 -0.609699010848999 -0.8304790258407593 0.007170999888330698 -0.5570039749145508
          -0.6091200113296509 -0.06567200273275375 -0.7903540134429932 -0.894216001033783 0.0418270006775856 -0.4456779956817627
          -0.9802820086479187 0.1642020046710968 -0.10993000119924545 -0.9836999773979187 0.1584330052137375 -0.08504299819469452
          -0.9613149762153625 0.1465509980916977 -0.23322999477386475 -0.9781829714775085 0.12921099364757538 -0.16267099976539612
          -0.983178973197937 0.17461900413036346 0.05355000123381615 -0.9479399919509888 0.05534600093960762 -0.3136020004749298
          -0.9865949749946594 0.07835300266742706 -0.14314399659633636 -0.9884669780731201 0.11972799897193909 -0.09272699803113937
          0.3053080141544342 -0.16551099717617035 -0.9377599954605103 0.40574100613594055 -0.19069699943065643 -0.8938729763031006
          0.3587169945240021 -0.16001999378204346 -0.9196280241012573 0.4114989936351776 -0.18501999974250793 -0.8924329876899719
          -0.536948025226593 -0.10306999832391739 -0.8372949957847595 -0.31885799765586853 -0.11654599756002426 -0.9406099915504456
          0.3151940107345581 -0.1907380074262619 -0.9296619892120361 0.14569799602031708 -0.18885299563407898 -0.9711369872093201
          0.044888000935316086 -0.1753389984369278 -0.9834840297698975 0.13697199523448944 -0.20021599531173706 -0.9701300263404846
          -0.08363500237464905 -0.18102799355983734 -0.9799150228500366 0.034233998507261276 -0.18856100738048553 -0.9814649820327759
          0.6137760281562805 -0.19106699526309967 -0.7660099864006042 0.5876020193099976 -0.17436300218105316 -0.7901399731636047
          0.6842600107192993 -0.12977899610996246 -0.7175970077514648 0.5887359976768494 -0.11823800206184387 -0.7996309995651245
          0.5543360114097595 -0.07993300259113312 -0.8284450173377991 0.5929499864578247 -0.12097399681806564 -0.7961000204086304
          0.55103999376297 -0.09835699945688248 -0.8286619782447815 0.6866289973258972 -0.12331400066614151 -0.7164739966392517
          0.47081199288368225 -0.09725499898195267 -0.8768569827079773 0.414667010307312 -0.052671000361442566 -0.9084479808807373
          0.2803319990634918 -0.029475999996066093 -0.9594500064849854 -0.9843869805335999 0.15612900257110596 -0.08127400279045105
          -0.9878209829330444 0.14909599721431732 -0.04449699819087982 -0.9891980290412903 0.14627499878406525 -0.00955200009047985
          -0.9232649803161621 0.18207800388336182 0.3382749855518341 -0.8340740203857422 0.19292600452899933 0.5168169736862183
          -0.9480119943618774 0.18430300056934357 0.25943300127983093 -0.9749979972839355 0.1812260001897812 0.1285949945449829
          -0.9809399843215942 0.1505489945411682 -0.12284500151872635 -0.8276209831237793 0.1468760073184967 -0.5417299866676331
          -0.8953700065612793 0.1307709962129593 -0.4256899952888489 -0.9486799836158752 0.14982500672340393 -0.27849501371383667
          -0.9708859920501709 0.16639700531959534 -0.1723169982433319 -0.9848189949989319 0.16591699421405792 0.05101500079035759
          -0.9785810112953186 0.15717199444770813 0.1329530030488968 0.25589099526405334 0.23883600533008575 -0.9367370009422302
          -0.960053026676178 0.16112199425697327 0.22877399623394012 -0.8995169997215271 0.16028599441051483 0.4064199924468994
          -0.8789569735527039 0.13624900579452515 -0.4570249915122986 -0.8626289963722229 0.12479999661445618 -0.490200012922287
          -0.8703309893608093 0.15860100090503693 -0.46622800827026367 -0.7599980235099792 0.13937799632549286 -0.6348050236701965
          -0.7738270163536072 0.18491299450397491 -0.605804979801178 -0.6577749848365784 0.14421099424362183 -0.7392799854278564
          -0.3879089951515198 0.08572500199079514 -0.9177029728889465 -0.5512539744377136 0.1397390067577362 -0.8225520253181458
          -0.02257400006055832 0.021028999239206314 -0.9995239973068237 0.16766999661922455 -0.0388370007276535 -0.985077977180481
          0.1565999984741211 -0.02149599976837635 -0.9874280095100403 -0.784637987613678 -0.014871000312268734 -0.6197760105133057
          -0.8671200275421143 0.04944999888539314 -0.49563899636268616 -0.6554009914398193 -0.07172200083732605 -0.7518680095672607
          -0.9813420176506042 0.17227399349212646 0.08537899702787399 -0.9838200211524963 0.17622500658035278 -0.03228599950671196
          -0.9725810289382935 0.20376600325107574 0.11209499835968018 -0.9103360176086426 0.21329200267791748 0.3546760082244873
          -0.9681339859962463 0.2121800035238266 0.13302500545978546 -0.9791539907455444 0.20101000368595123 0.02918899990618229
          -0.8265929818153381 0.21646900475025177 0.5195050239562988 -0.9027330279350281 0.2203570008277893 0.3694800138473511
          -0.968887984752655 0.24277199804782867 -0.04813599959015846 -0.9838929772377014 0.1761229932308197 -0.030588999390602112
          -0.9954079985618591 0.0634469985961914 -0.07168100029230118 -0.9387140274047852 0.004387000110000372 -0.34466999769210815
          -0.8672670125961304 -0.03006500005722046 -0.49693500995635986 -0.9938510060310364 0.10954400151968002 0.016109999269247055
          -0.9879800081253052 0.14901700615882874 0.041113998740911484 0.500449001789093 -0.1915140002965927 -0.8443179726600647
          0.6034049987792969 -0.19141900539398193 -0.7741190195083618 0.5511130094528198 -0.1776680052280426 -0.81529700756073
          0.5627679824829102 -0.2215300053358078 -0.7963770031929016 -0.6813840270042419 -0.08866800367832184 -0.7265350222587585
          -0.6462209820747375 -0.11300099641084671 -0.7547379732131958 -0.38901400566101074 -0.15058700740337372 -0.9088410139083862
          0.30512499809265137 -0.21405500173568726 -0.927944004535675 0.4933600127696991 -0.22215400636196136 -0.8409780263900757
          0.36923301219940186 -0.23370599746704102 -0.8994709849357605 0.37802499532699585 -0.2684119939804077 -0.886031985282898
          0.11617700010538101 -0.21380099654197693 -0.9699440002441406 -0.21172699332237244 -0.22225700318813324 -0.9517210125923157
          0.17117400467395782 -0.26595601439476013 -0.948665976524353 0.10987000167369843 -0.28089699149131775 -0.9534279704093933
          0.712261974811554 -0.16622799634933472 -0.6819459795951843 0.7273280024528503 -0.16712400317192078 -0.6656299829483032
          0.8590999841690063 -0.13244999945163727 -0.49437201023101807 0.8681579828262329 -0.11174000054597855 -0.4835459887981415
          0.5526139736175537 -0.07784199714660645 -0.8297939896583557 0.6416100263595581 -0.11224599927663803 -0.7587739825248718
          0.778544008731842 -0.10787999629974365 -0.6182479858398438 0.8538579940795898 -0.1447010040283203 -0.49998798966407776
          0.583961009979248 -0.044022999703884125 -0.8105869889259338 0.4578149914741516 -0.05803000181913376 -0.8871510028839111
          0.29306501150131226 -0.0250840000808239 -0.9557629823684692 -0.8214880228042603 0.15280300378799438 0.5493720173835754
          -0.6750789880752563 0.15382599830627441 0.7215309739112854 -0.8879119753837585 0.20401600003242493 0.41229701042175293
          -0.6318179965019226 0.16675600409507751 0.7569670081138611 -0.7040920257568359 0.18800799548625946 0.6847689747810364
          -0.6339179873466492 0.17020200192928314 0.7544400095939636 -0.7912060022354126 0.18849599361419678 0.5817760229110718
          -0.9467989802360535 0.20266400277614594 0.24999700486660004 -0.9402920007705688 0.16917100548744202 -0.29534998536109924
          -0.9508730173110962 0.1623629927635193 -0.2635889947414398 -0.9817230105400085 0.15344199538230896 -0.11258400231599808
          -0.9084299802780151 0.18017399311065674 0.37721699476242065 -0.9813539981842041 0.17596399784088135 0.07733500003814697
          -0.8796889781951904 0.19018900394439697 0.4358620047569275 -0.7761769890785217 0.1844480037689209 0.6029319763183594
          -0.7557240128517151 0.15248499810695648 0.6368910074234009 -0.8992609977722168 0.13954100012779236 -0.4145579934120178
          -0.8719069957733154 0.16418300569057465 -0.461326003074646 -0.8258219957351685 0.19553500413894653 -0.5289459824562073
          -0.8997640013694763 0.15627700090408325 -0.40743300318717957 -0.8085529804229736 0.1459439992904663 -0.5700370073318481
          -0.9122269749641418 0.142645001411438 -0.38405099511146545 -0.8223450183868408 0.18833500146865845 -0.5369150042533875
          -0.7198939919471741 0.13732999563217163 -0.6803619861602783 -0.8424389958381653 0.19042600691318512 -0.5040180087089539
          -0.6361100077629089 0.12818799912929535 -0.7608759999275208 -0.3984079957008362 0.12584500014781952 -0.9085339903831482
          -0.11095599830150604 0.09945300221443176 -0.9888370037078857 -0.6247770190238953 0.14735999703407288 -0.7667719721794128
          -0.5026100277900696 0.15053200721740723 -0.8513069748878479 -0.4448400139808655 0.12677399814128876 -0.8865919709205627
          0.2699719965457916 0.051538001745939255 -0.9614880084991455 0.07184500247240067 0.06840900331735611 -0.9950670003890991
          -0.7336980104446411 -0.06413999944925308 -0.67644202709198 -0.956492006778717 0.213687002658844 0.19864800572395325
          -0.7802820205688477 0.21471799910068512 0.5874149799346924 -0.8903819918632507 0.2226710021495819 0.39703500270843506
          0.11665000021457672 0.9578999876976013 0.26233699917793274 0.9348649978637695 0.28895801305770874 0.20622900128364563
          0.9459080100059509 0.31967300176620483 -0.055376000702381134 -0.8094170093536377 0.20552699267864227 0.5500929951667786
          -0.6568920016288757 0.21930399537086487 0.7213860154151917 -0.5933189988136292 0.18418900668621063 0.783610999584198
          -0.6402940154075623 0.19487400352954865 0.7429990172386169 -0.7833830118179321 0.24207399785518646 0.5724610090255737
          -0.7559139728546143 0.21924099326133728 0.6168689727783203 -0.9922099709510803 0.01166400033980608 -0.12403099983930588
          -0.9892609715461731 0.11337299644947052 0.09224700182676315 -0.9804319739341736 0.1038530021905899 0.16723600029945374
          -0.99925297498703 0.03689299896359444 0.011536999605596066 -0.9907479882240295 0.03188500180840492 -0.1319189965724945
          -0.7909119725227356 -0.04826299846172333 -0.610023021697998 -0.8090789914131165 -0.04233799874782562 -0.5861729979515076
          -0.9213169813156128 -0.04261200129985809 -0.3864699900150299 -0.7880989909172058 -0.06565999984741211 -0.6120359897613525
          -0.9831579923629761 0.025022000074386597 -0.18103599548339844 -0.9593440294265747 0.24624300003051758 0.13792499899864197
          -0.9414340257644653 0.18342800438404083 0.2829430103302002 -0.9758099913597107 0.13657599687576294 0.17070800065994263
          0.676846981048584 -0.18973000347614288 -0.7112529873847961 0.8137879967689514 -0.176146000623703 -0.5538240075111389
          -0.6068220138549805 -0.14481599628925323 -0.7815340161323547 -0.37915900349617004 -0.17797799408435822 -0.908053994178772
          0.6688470244407654 -0.23141199350357056 -0.7064650058746338 0.5731989741325378 -0.30079400539398193 -0.7622110247612
          0.3404729962348938 -0.3165709972381592 -0.885358989238739 0.47819599509239197 -0.3366369903087616 -0.8111749887466431
          0.3109680116176605 -0.258527010679245 -0.9145830273628235 -0.09493699669837952 -0.29712799191474915 -0.9501060247421265
          -0.15972900390625 -0.2529509961605072 -0.9542019963264465 0.07745400071144104 -0.28538501262664795 -0.9552779793739319
          0.17814600467681885 -0.33034399151802063 -0.9268959760665894 0.9190670251846313 -0.13132700324058533 -0.3715760111808777
          0.9774219989776611 -0.0682229995727539 -0.19998200237751007 0.9749749898910522 -0.11698000133037567 -0.18904900550842285
          0.9336529970169067 -0.11381600052118301 -0.33961400389671326 0.9673879742622375 -0.09378600120544434 -0.23529499769210815
          0.6474519968032837 -0.05178799852728844 -0.7603440284729004 0.7106810212135315 -0.162990003824234 -0.6843739748001099
          0.7296760082244873 -0.1117900013923645 -0.6745929718017578 0.7390339970588684 -0.08815799653530121 -0.6678749918937683
          0.9103469848632812 -0.10841599851846695 -0.3993929922580719 0.7791079878807068 -0.16026699542999268 -0.6060569882392883
          0.9481170177459717 -0.08006799966096878 -0.30767300724983215 0.9355310201644897 -0.07884100079536438 -0.3443340063095093
          0.6062129735946655 -0.043184999376535416 -0.7941290140151978 0.7041929960250854 -0.028366999700665474 -0.7094410061836243
          0.6982089877128601 -0.049171000719070435 -0.7142040133476257 0.6926779747009277 -0.038989000022411346 -0.720192015171051
          0.5663260221481323 -0.015791000798344612 -0.8240299820899963 0.4444260001182556 -0.018101999536156654 -0.8956329822540283
          -0.4033530056476593 0.18596599996089935 0.8959479928016663 -0.5002210140228271 0.15111899375915527 0.8526089787483215
          -0.4996339976787567 0.17007200419902802 0.8493769764900208 -0.7842159867286682 0.2021940052509308 0.5866190195083618
          -0.6778240203857422 0.1955219954252243 0.7087500095367432 -0.667868971824646 0.21355199813842773 0.712984025478363
          -0.33726000785827637 0.14153499901294708 0.9307109713554382 -0.4148299992084503 0.15780100226402283 0.896111011505127
          -0.49188199639320374 0.18004700541496277 0.8518419861793518 -0.9389770030975342 0.15070800483226776 -0.3092069923877716
          -0.9589359760284424 0.1541920006275177 -0.23804600536823273 -0.9631900191307068 0.17463000118732452 -0.20437400043010712
          -0.9583899974822998 0.1454939991235733 -0.24560099840164185 -0.9815130233764648 0.15170200169086456 -0.11670199781656265
          -0.9285200238227844 0.19968299567699432 0.3130129873752594 -0.8256739974021912 0.175586998462677 0.5361260175704956
          -0.7358189821243286 0.1807679980993271 0.6526049971580505 -0.7355719804763794 0.23062700033187866 0.6369810104370117
          -0.9831990003585815 0.17885200679302216 -0.03650299832224846 -0.5760470032691956 0.18961399793624878 0.7951210141181946
          -0.6520860195159912 0.19147799909114838 0.7335669994354248 -0.49602600932121277 0.217739999294281 0.8405640125274658
          0.8048629760742188 0.21650199592113495 -0.5525590181350708 -0.8138769865036011 0.17961600422859192 -0.552577018737793
          -0.8760520219802856 0.21106800436973572 -0.433569997549057 -0.8395379781723022 0.22065399587154388 -0.4964759945869446
          0.2220350056886673 0.32249701023101807 -0.9201610088348389 -0.9474020004272461 0.1773419976234436 -0.266418993473053
          -0.9647819995880127 0.14852799475193024 -0.21710799634456635 -0.8720170259475708 0.20615899562835693 -0.44394201040267944
          -0.7175220251083374 0.20145000517368317 -0.6667690277099609 -0.2338940054178238 0.12648099660873413 -0.9639999866485596
          0.24609899520874023 0.1156969964504242 -0.962315022945404 0.08172699809074402 0.12485600262880325 -0.9888030290603638
          0.09134700149297714 0.11015500128269196 -0.9897080063819885 -0.5660300254821777 0.18797600269317627 -0.8026679754257202
          -0.6438230276107788 0.1892170011997223 -0.7414100170135498 -0.26646000146865845 0.15266099572181702 -0.951678991317749
          -0.3086009919643402 0.12395799905061722 -0.9430800080299377 -0.44884198904037476 0.1601569950580597 -0.8791419863700867
          0.49510401487350464 0.07489299774169922 -0.8655999898910522 -0.6135110259056091 0.2118760049343109 0.7607309818267822
          -0.7956780195236206 0.24241900444030762 0.5550950169563293 -0.6702920198440552 0.21857699751853943 0.7091770172119141
          -0.730131983757019 0.24361400306224823 0.6384040117263794 -0.4169920086860657 0.17885200679302216 0.8911399841308594
          -0.5134750008583069 0.1763709932565689 0.8397840261459351 -0.4142659902572632 0.1523119956254959 0.8973209857940674
          -0.5117539763450623 0.18837900459766388 0.8382250070571899 -0.6493359804153442 0.24752900004386902 0.71909099817276
          -0.9770269989967346 0.1601649969816208 0.1405930072069168 -0.9606000185012817 0.13785499334335327 0.24133700132369995
          -0.975629985332489 0.07958699762821198 0.20447899401187897 -0.9512839913368225 0.12142100185155869 0.2834010124206543
          -0.979764997959137 -0.024793000891804695 -0.19861100614070892 -0.9900550246238708 0.030905000865459442 0.1372469961643219
          -0.9999279975891113 -0.011621999554336071 -0.0030410001054406166 -0.990103006362915 -0.03799299895763397 -0.13510000705718994
          -0.9841859936714172 -0.026690000668168068 -0.17511799931526184 -0.7850850224494934 -0.1108580008149147 -0.6093860268592834
          -0.9076189994812012 -0.08455599844455719 -0.4111909866333008 -0.8366219997406006 -0.08927799761295319 -0.5404559969902039
          -0.8084570169448853 0.2009660005569458 0.5531820058822632 -0.9077969789505005 0.19479000568389893 0.37143200635910034
          -0.9626910090446472 0.19635799527168274 0.1861959993839264 0.880843997001648 -0.1825529932975769 -0.4367940127849579
          0.9553130269050598 -0.13296300172805786 -0.2640039920806885 -0.7729759812355042 -0.13176800310611725 -0.6205999851226807
          -0.5747519731521606 -0.18777500092983246 -0.7964929938316345 -0.43027999997138977 -0.2239830046892166 -0.8744660019874573
          -0.3052099943161011 -0.26899099349975586 -0.9135050177574158 0.72051602602005 -0.22955399751663208 -0.6543409824371338
          0.8070350289344788 -0.20053300261497498 -0.5554109811782837 0.6991569995880127 -0.2991439998149872 -0.6493780016899109
          0.6652320027351379 -0.35411199927330017 -0.6573209762573242 0.7486950159072876 -0.30761298537254333 -0.5872219800949097
          0.5114039778709412 -0.38817399740219116 -0.7666730284690857 0.3132669925689697 -0.42843198776245117 -0.8475319743156433
          0.005900000222027302 -0.2627910077571869 -0.964834988117218 0.021313000470399857 -0.2697170078754425 -0.9627040028572083
          -0.0972059965133667 -0.3312860131263733 -0.938510000705719 0.13724400103092194 -0.27664700150489807 -0.9511209726333618
          0.09788999706506729 -0.2807129919528961 -0.954787015914917 0.14308199286460876 -0.411529004573822 -0.9000959992408752
          0.027792999520897865 -0.36000001430511475 -0.9325379729270935 0.9933739900588989 -0.09697800129652023 -0.06167399883270264
          0.9970459938049316 -0.0674619972705841 0.036720000207424164 0.9968799948692322 -0.07306700199842453 -0.029864000156521797
          0.9908360242843628 -0.03663399815559387 0.13000500202178955 0.9948499798774719 -0.10136300325393677 0.000009000000318337698
          0.9936649799346924 -0.09096299856901169 -0.06599900126457214 0.7364709973335266 -0.0608070008456707 -0.6737310290336609
          0.8654590249061584 -0.06627599895000458 -0.4965769946575165 0.8847129940986633 -0.1483609974384308 -0.441895991563797
          0.7624620199203491 -0.08204499632120132 -0.6418099999427795 0.9820330142974854 -0.09341099858283997 -0.16396600008010864
          0.9820520281791687 -0.07673099637031555 -0.17229799926280975 0.9969339966773987 -0.058866001665592194 -0.05155099928379059
          0.6924139857292175 -0.030973000451922417 -0.7208349704742432 0.7434049844741821 -0.06205499917268753 -0.665956974029541
          0.7753409743309021 -0.06131700053811073 -0.6285589933395386 0.7238669991493225 -0.027201000601053238 -0.6894029974937439
          0.8321380019187927 -0.053119998425245285 -0.5520179867744446 0.8429409861564636 -0.04233900085091591 -0.5363379716873169
          0.6974359750747681 0.008887000381946564 -0.716592013835907 0.5904009938240051 0.06249700114130974 -0.8046870231628418
          0.9714530110359192 0.044404998421669006 0.2330390065908432 0.7583590149879456 0.11779399961233139 0.6411049962043762
          -0.26149600744247437 0.17216099798679352 0.9497269988059998 -0.3264000117778778 0.13242800533771515 0.9359089732170105
          -0.5903480052947998 0.19414100050926208 0.7834529876708984 -0.47661900520324707 0.1588820070028305 0.8646339774131775
          -0.6070380210876465 0.213578000664711 0.7654340267181396 -0.1659879982471466 0.11803100258111954 0.9790390133857727
          -0.265843003988266 0.11215099692344666 0.9574710130691528 -0.1557530015707016 0.11113599687814713 0.9815239906311035
          -0.19003400206565857 0.1372150033712387 0.9721419811248779 -0.3237690031528473 0.1371150016784668 0.9361479878425598
          -0.35659199953079224 0.1490209996700287 0.9222990274429321 -0.8145449757575989 0.23929600417613983 0.5284450054168701
          -0.8398230075836182 0.22257100045681 0.49513599276542664 -0.9688230156898499 0.2223220020532608 0.10933700203895569
          -0.8892539739608765 0.26546698808670044 0.37249699234962463 -0.6573169827461243 0.18874399363994598 0.7295950055122375
          -0.9748589992523193 0.22182300686836243 -0.021059999242424965 -0.970329999923706 0.20796500146389008 -0.12332700192928314
          -0.33142998814582825 0.15029799938201904 0.931430995464325 -0.3034430146217346 0.1236639991402626 0.9447910189628601
          -0.4690900146961212 0.17601700127124786 0.8654320240020752 -0.45025399327278137 0.17927299439907074 0.8747180104255676
          -0.5239840149879456 0.18511900305747986 0.831367015838623 0.7556759715080261 0.14611800014972687 0.6384379863739014
          0.23555099964141846 0.39271798729896545 -0.8889809846878052 -0.7947450280189514 0.21834099292755127 -0.5663099884986877
          -0.8798999786376953 0.27610400319099426 -0.38670799136161804 -0.9031710028648376 0.2293819934129715 -0.36285901069641113
          -0.9071739912033081 0.1776989996433258 -0.38138899207115173 -0.8173869848251343 0.3084059953689575 -0.48658400774002075
          -0.8913120031356812 0.17892399430274963 -0.416592001914978 -0.9709979891777039 0.21953600645065308 -0.09469600021839142
          -0.9248499870300293 0.17608200013637543 -0.337116003036499 -0.9338719844818115 0.1808519959449768 -0.30850398540496826