<?xml version="1.0"?>
<VTKFile type="PolyData" version="0.1" byte_order="LittleEndian" header_type="UInt32" compressor="vtkZLibDataCompressor">
  <PolyData>
    <Piece NumberOfPoints="1122" NumberOfVerts="0" NumberOfLines="0" NumberOfStrips="0" NumberOfPolys="2240">
      <PointData Normals="Normals">
        <DataArray type="Float32" Name="Normals" NumberOfComponents="3" format="ascii" RangeMin="0.9999992516569262" RangeMax="1.000000724228731">
          -0.0537789985537529 0.9787099957466125 0.19808000326156616 -0.19024600088596344 0.9769780039787292 -0.09653899818658829
          -0.3959450125694275 0.905672013759613 0.15160800516605377 -0.20229099690914154 0.8790510296821594 0.43167901039123535
          0.10087800025939941 0.9589750170707703 -0.26493600010871887 0.31052398681640625 0.9486749768257141 -0.05991699919104576
          0.18063899874687195 0.8943750262260437 0.4092220067977905 -0.09985999763011932 0.8577759861946106 -0.5042309761047363
          -0.37398698925971985 0.8765829801559448 0.3028779923915863 -0.2256689965724945 0.8980579972267151 0.3775779902935028
          -0.4402570128440857 0.8218539953231812 0.3615660071372986 -0.28542500734329224 0.9278450012207031 0.2400760054588318
          -0.34209299087524414 0.9200459718704224 0.1910170018672943 -0.2903920114040375 0.9563969969749451 -0.031261999160051346
          -0.31833600997924805 0.9196799993515015 0.2298939973115921 -0.10006900131702423 0.9204270243644714 -0.3778899908065796
          -0.1658249944448471 0.9256020188331604 0.3402400016784668 0.12956300377845764 0.9200299978256226 0.36980700492858887
          -0.15973800420761108 0.892956018447876 0.42084801197052 0.2584559917449951 0.8032670021057129 -0.5366209745407104
          0.27118000388145447 0.9040849804878235 0.3302910029888153 0.3888550102710724 0.8046889901161194 -0.4486280083656311
          0.38843899965286255 0.886011004447937 -0.25317999720573425 0.20545099675655365 0.8240870237350464 0.527891993522644
          -0.11120299994945526 0.8090760111808777 -0.5770869851112366 0.18546299636363983 0.7269799709320068 -0.6611379981040955
          0.07147599756717682 0.749006986618042 -0.6586959958076477 0.596688985824585 0.7734540104866028 0.21384799480438232
          -0.29061201214790344 0.9434289932250977 0.15964199602603912 0.7590619921684265 0.5799530148506165 0.29576900601387024
          -0.18464699387550354 0.9813690185546875 0.05310099944472313 -0.1704549938440323 0.9265329837799072 0.33538299798965454
          -0.0451200008392334 0.9694420099258423 0.24113500118255615 -0.10181999951601028 0.9855290055274963 -0.13552099466323853
          -0.1854970008134842 0.9725459814071655 -0.14051400125026703 -0.10965900123119354 0.9575909972190857 0.2664470076560974
          0.06341700255870819 0.6429029703140259 -0.7633180022239685 0.06918299943208694 0.7637190222740173 -0.6418309807777405
          -0.1350480020046234 0.8693169951438904 -0.47544699907302856 0.10269399732351303 0.9944909811019897 0.021019000560045242
          -0.0675169974565506 0.9719290137290955 0.22537699341773987 0.3115510046482086 0.9393309950828552 0.1435070037841797
          0.12746700644493103 0.9119870066642761 0.3899120092391968 0.2995719909667969 0.913453996181488 0.27542299032211304
          0.943569004535675 0.3036330044269562 0.13223199546337128 0.36360299587249756 0.6328200101852417 -0.6836169958114624
          0.42390701174736023 0.7164880037307739 -0.5540279746055603 0.16976800560951233 0.8891990184783936 0.4248569905757904
          0.2604239881038666 0.9654780030250549 -0.005584999918937683 0.3047260046005249 0.8597589731216431 -0.40982601046562195
          0.12641799449920654 0.5907139778137207 -0.7969160079956055 0.21235999464988708 0.5547149777412415 -0.8044840097427368
          -0.034088000655174255 0.9989619851112366 -0.030222000554203987 -0.18088200688362122 0.9400290250778198 -0.2891849875450134
          0.08636400103569031 0.9868419766426086 0.13669399917125702 0.06693100184202194 0.8659690022468567 -0.4955979883670807
          0.3728939890861511 0.873790979385376 -0.31215399503707886 -0.06615699827671051 0.7832270264625549 -0.6182069778442383
          -0.17789199948310852 0.7881829738616943 -0.5891709923744202 -0.2526229918003082 0.8289880156517029 -0.4989590048789978
          -0.30417400598526 0.9264019727706909 -0.2219409942626953 -0.19081899523735046 0.9808520078659058 0.03895600140094757
          -0.3467260003089905 0.9351189732551575 -0.07302600145339966 -0.4507080018520355 0.889926016330719 -0.06996499747037888
          -0.03544599935412407 0.5829989910125732 -0.8116989731788635 0.05740800127387047 0.1925020068883896 -0.9796159863471985
          0.035757001489400864 0.2330559939146042 -0.971805989742279 0.06055799871683121 0.45640501379966736 -0.8877090215682983
          0.39034199714660645 0.9157230257987976 -0.09531400352716446 0.3039360046386719 0.9522989988327026 0.027396000921726227
          0.2716439962387085 0.9438809752464294 0.18787899613380432 0.19273999333381653 0.938289999961853 0.28716298937797546
          0.04394400119781494 0.9959779977798462 0.07808700203895569 -0.07763800024986267 0.9777510166168213 0.19487400352954865
          -0.020872000604867935 0.9448040127754211 0.32697200775146484 0.06500700116157532 0.9344450235366821 0.3501240015029907
          0.493245005607605 0.3124299943447113 -0.811847984790802 0.32375800609588623 0.3465830087661743 -0.8803759813308716
          0.5253599882125854 0.45500999689102173 -0.7190009951591492 0.3050509989261627 0.28682899475097656 -0.908115029335022
          0.3970229923725128 0.6924769878387451 -0.602370023727417 0.33125099539756775 0.9347090125083923 -0.12881100177764893
          0.27029699087142944 0.8884029984474182 -0.371053010225296 0.17584200203418732 0.9670550227165222 0.1840759962797165
          0.3545689880847931 0.6787949800491333 -0.6430529952049255 0.17637699842453003 0.20140600204467773 -0.9634969830513
          0.10689400136470795 0.9904279708862305 -0.08732999861240387 -0.04261099919676781 0.9483929872512817 -0.31422001123428345
          -0.11214199662208557 0.9163299798965454 -0.38440001010894775 -0.1501459926366806 0.8411099910736084 -0.5196059942245483
          0.08665899932384491 0.9901160001754761 -0.11027099937200546 0.42272600531578064 0.830286979675293 -0.3632180094718933
          0.006876000203192234 0.8962380290031433 -0.44352099299430847 -0.17660200595855713 0.8113759756088257 -0.5572080016136169
          0.48795899748802185 0.8411669731140137 -0.23309600353240967 -0.051461998373270035 0.5195220112800598 -0.8529059886932373
          -0.17238500714302063 0.5797070264816284 -0.7963809967041016 -0.5042740106582642 0.7273460030555725 -0.46548399329185486
          -0.40062499046325684 0.5305740237236023 -0.7469879984855652 -0.657666027545929 0.7196699976921082 -0.22259899973869324
          -0.8740710020065308 0.45831799507141113 -0.16107599437236786 -0.8446230292320251 0.5058190226554871 -0.17538100481033325
          -0.8847020268440247 0.4025129973888397 -0.2351280003786087 -0.8883370161056519 0.4533640146255493 -0.07293099910020828
          -0.7099050283432007 0.6814020276069641 -0.17811700701713562 -0.32984599471092224 0.9439389705657959 -0.013434999622404575
          0.062251001596450806 0.9928619861602783 -0.10173500329256058 0.1207360029220581 -0.05279500037431717 -0.9912800192832947
          0.1646219938993454 -0.16093699634075165 -0.9731389880180359 -0.0737999975681305 -0.06367000192403793 -0.9952390193939209
          -0.11200200021266937 0.21278099715709686 -0.9706599712371826 0.28893500566482544 0.9451770186424255 -0.1521729975938797
          0.46082401275634766 0.8379459977149963 -0.29238200187683105 0.15280699729919434 0.9608070254325867 -0.23130099475383759
          -0.003504999913275242 0.989637017250061 -0.143546000123024 -0.06475599855184555 0.9978799819946289 0.006560000125318766
          -0.05277499929070473 0.9797260165214539 0.19326500594615936 0.0955900028347969 0.9553269743919373 0.2796669900417328
          0.08467599749565125 0.9765229821205139 0.19807100296020508 0.41089698672294617 -0.0670590028166771 -0.9092119932174683
          0.5291560292243958 0.05622600018978119 -0.8466600179672241 0.5326740145683289 0.4035170078277588 -0.743930995464325
          0.28671199083328247 -0.11184000223875046 -0.9514660239219666 0.42816001176834106 0.8016539812088013 -0.4171690046787262
          0.3268069922924042 0.9450889825820923 0.002005999907851219 0.42345499992370605 0.39242199063301086 -0.8165109753608704
          0.47755101323127747 0.3701159954071045 -0.7968440055847168 0.4738830029964447 0.5502369999885559 -0.687512993812561
          0.18028900027275085 -0.1919340044260025 -0.9647060036659241 -0.09328299760818481 0.905119001865387 -0.4147990047931671
          -0.1536870002746582 0.9845600128173828 -0.08379899710416794 -0.3282090127468109 0.9023159742355347 -0.2794710099697113
          0.13753999769687653 0.9773330092430115 -0.16094200313091278 0.45116299390792847 0.8677060008049011 -0.20865699648857117
          -0.396261990070343 0.874783992767334 -0.27880001068115234 -0.34405601024627686 0.933443009853363 -0.10153699666261673
          -0.322719007730484 0.28731900453567505 -0.9018319845199585 -0.5753679871559143 0.30279800295829773 -0.7597799897193909
          -0.6926259994506836 0.5362759828567505 -0.48236700892448425 -0.8495849967002869 0.35390499234199524 -0.3910970091819763
          -0.9119769930839539 0.3963620066642761 -0.10580500215291977 -0.9417930245399475 0.3109219968318939 -0.12787899374961853
          -0.9440360069274902 0.3218330144882202 -0.07225000113248825 -0.9433130025863647 0.3187370002269745 -0.0925540030002594
          -0.9380210041999817 0.22185499966144562 -0.2662639915943146 -0.7398309707641602 0.10363899916410446 -0.664762020111084
          -0.7886360287666321 0.6060969829559326 -0.10343900322914124 -0.7525179982185364 0.648967981338501 0.11206399649381638
          -0.2960579991340637 0.9502379894256592 0.09694399684667587 -0.6479219794273376 0.7412829995155334 0.1752060055732727
          0.30209898948669434 -0.19594000279903412 -0.9329220056533813 0.07232300192117691 -0.19734899699687958 -0.9776620268821716
          0.425029993057251 -0.21245799958705902 -0.8798930048942566 0.2620300054550171 -0.3316330015659332 -0.9062889814376831
          -0.3427940011024475 0.1126519963145256 -0.9326310157775879 -0.3739739954471588 -0.046557001769542694 -0.9262700080871582
          -0.10786399990320206 -0.19768300652503967 -0.9743139743804932 0.008434999734163284 -0.32404398918151855 -0.9460039734840393
          0.3364950120449066 0.89069002866745 -0.3056829869747162 0.5065969824790955 0.8496009707450867 -0.14675599336624146
          0.5275599956512451 0.8494219779968262 0.012776000425219536 0.3152740001678467 0.928026020526886 -0.1984190046787262
          0.19032999873161316 0.9797459840774536 -0.06222600117325783 0.1765809953212738 0.9841179847717285 0.018185999244451523
          0.19000600278377533 0.9817759990692139 -0.0036359999794512987 0.05174500122666359 0.9983199834823608 -0.02607700042426586
          0.28339698910713196 0.9541370272636414 0.09647800028324127 0.1125900000333786 0.9814029932022095 0.155472993850708
          0.4244529902935028 0.9054139852523804 0.008051999844610691 0.41893601417541504 -0.2589789927005768 -0.8702999949455261
          0.3054080009460449 -0.26594600081443787 -0.914330005645752 0.23365899920463562 -0.25415998697280884 -0.9385129809379578
          0.4419960081577301 -0.1462170034646988 -0.8850200176239014 0.5187180042266846 0.11111299693584442 -0.8476939797401428
          0.12316100299358368 -0.36490699648857117 -0.9228619933128357 0.5006700158119202 0.8235549926757812 -0.266620010137558
          0.6431450247764587 0.5192810297012329 -0.5627710223197937 0.5887259840965271 0.32601600885391235 -0.7396730184555054
          -0.26230698823928833 0.9636319875717163 -0.05106800049543381 -0.5677080154418945 0.8010519742965698 0.18979999423027039
          -0.6146849989891052 0.6998310089111328 0.36386701464653015 0.1773259937763214 0.9326609969139099 0.31416401267051697
          -0.25032201409339905 0.9228180050849915 0.2928229868412018 -0.5607730150222778 0.8024529814720154 0.20396900177001953
          -0.7829179763793945 0.2738800048828125 -0.5585960149765015 -0.9453529715538025 0.15969699621200562 -0.2842620015144348
          -0.9521059989929199 0.13703800737857819 -0.27333900332450867 -0.9819200038909912 0.18836799263954163 -0.0187389999628067
          -0.9691339731216431 0.24189899861812592 0.047575999051332474 -0.9544020295143127 0.29812300205230713 0.01549100037664175
          -0.8666509985923767 -0.010780000127851963 -0.49879899621009827 -0.6763740181922913 -0.08274299651384354 -0.7318959832191467
          -0.9160630106925964 0.2900170087814331 0.276980996131897 -0.7870870232582092 0.4843659996986389 0.38194701075553894
          0.20128299295902252 -0.28678199648857117 -0.936610996723175 0.31564998626708984 -0.2756049931049347 -0.9079689979553223
          0.016114000231027603 -0.3251670002937317 -0.945518970489502 0.2542169988155365 -0.15905199944972992 -0.9539790153503418
          0.3230060040950775 -0.2723209857940674 -0.906370997428894 -0.4420889914035797 -0.17470699548721313 -0.8797919750213623
          -0.2179349958896637 -0.20864999294281006 -0.9533990025520325 0.056745000183582306 -0.260699987411499 -0.9637510180473328
          -0.028831999748945236 -0.2529520094394684 -0.9670490026473999 0.045878998935222626 -0.39669299125671387 -0.9168040156364441
          0.0522879995405674 -0.370853990316391 -0.9272180199623108 -0.04743099957704544 -0.28087401390075684 -0.9585719704627991
          0.11803100258111954 -0.3108609914779663 -0.9430980086326599 -0.11637599766254425 -0.30005601048469543 -0.9467960000038147
          0.42951899766921997 0.9017840027809143 0.04794599860906601 0.1983029991388321 0.9060400128364563 0.37385401129722595
          0.2862420082092285 0.8128349781036377 0.507311999797821 0.31738099455833435 0.8426910042762756 0.434904009103775
          0.2693440020084381 0.8761029839515686 0.3998720049858093 0.43594101071357727 0.8744660019874573 0.2127559930086136
          0.25647398829460144 0.6611970067024231 0.7050099968910217 0.600616991519928 0.6762239933013916 0.42659300565719604
          0.4271470010280609 0.8730779886245728 0.23511700332164764 0.44655999541282654 0.8692119717597961 0.21226300299167633
          0.6594020128250122 0.688077986240387 0.30288299918174744 0.4232749938964844 0.8996180295944214 0.10736200213432312
          0.5567370057106018 0.8245019912719727 -0.10119599848985672 0.9110730290412903 0.4117709994316101 -0.019785000011324883
          0.9678400158882141 0.2500549852848053 -0.02752400003373623 0.42831701040267944 -0.26156899333000183 -0.8649430274963379
          0.357230007648468 -0.33454498648643494 -0.8720470070838928 0.2335759997367859 -0.3251340091228485 -0.9163680076599121
          0.15470899641513824 -0.29076600074768066 -0.9442039728164673 0.4286310076713562 -0.19274599850177765 -0.8826799988746643
          0.6186890006065369 -0.06016800180077553 -0.7833290100097656 0.6977540254592896 0.19427600502967834 -0.689490020275116
          0.49943000078201294 -0.206837996840477 -0.8413010239601135 0.083126001060009 -0.25491899251937866 -0.9633830189704895
          0.7130749821662903 0.5614719986915588 -0.4198490083217621 0.4668799936771393 0.868569016456604 -0.1661680042743683
          0.7795979976654053 0.29038000106811523 -0.5548930168151855 -0.6903960108757019 0.6464009881019592 0.32483699917793274
          -0.7527210116386414 0.4552150070667267 0.47559499740600586 -0.7348290085792542 0.42492398619651794 0.5286449790000916
          -0.2023410052061081 0.8148810267448425 0.5431640148162842 -0.17222000658512115 0.7386199831962585 0.6517519950866699
          -0.45198899507522583 0.7802050113677979 0.4324190020561218 -0.6398670077323914 0.6764979958534241 0.36458200216293335
          -0.8885949850082397 -0.10751699656248093 -0.4459129869937897 -0.9649590253829956 -0.05116400122642517 -0.2573640048503876
          -0.995507001876831 -0.021407000720500946 -0.09223199635744095 -0.997596025466919 -0.022678999230265617 0.06548299640417099
          -0.9656180143356323 0.12876899540424347 0.225832000374794 -0.7968729734420776 -0.1711210012435913 -0.5794050097465515
          -0.6572549939155579 -0.2116910070180893 -0.7233279943466187 -0.9262980222702026 0.05446900054812431 0.3728350102901459
          -0.9095439910888672 0.02163200080394745 0.41504499316215515 -0.8419659733772278 0.22688299417495728 0.4895069897174835
          0.2740890085697174 -0.31097498536109924 -0.9100379943847656 0.4363879859447479 -0.2932789921760559 -0.8506190180778503
          0.4104830026626587 -0.28733500838279724 -0.865414023399353 0.1506190001964569 -0.32376500964164734 -0.9340720176696777
          -0.46619099378585815 -0.27747398614883423 -0.8400440216064453 -0.3003160059452057 -0.26049599051475525 -0.9175800085067749
          0.11605300009250641 -0.29162201285362244 -0.9494680166244507 0.06717199832201004 -0.2174289971590042 -0.9737619757652283
          -0.35698801279067993 -0.20649699866771698 -0.9109990000724792 -0.523684024810791 -0.27072998881340027 -0.8077499866485596
          0.17815299332141876 0.7518889904022217 0.6347630023956299 0.0788159966468811 0.7434459924697876 0.6641359925270081
          0.2669279873371124 0.5340999960899353 0.8021759986877441 0.17645899951457977 0.587602972984314 0.7896739840507507
          0.48773398995399475 0.6806300282478333 0.5466790199279785 0.32812899351119995 0.5582000017166138 0.7620649933815002
          0.3277429938316345 0.31089699268341064 0.8921480178833008 0.33614999055862427 0.27600300312042236 0.9004589915275574
          0.6856610178947449 0.5485749840736389 0.47846999764442444 0.6712920069694519 0.2695010006427765 0.6904609799385071
          0.6469759941101074 0.44193199276924133 0.6213849782943726 0.7031409740447998 0.6111019849777222 0.36351901292800903
          0.6525639891624451 0.6652609705924988 0.36274999380111694 0.6133589744567871 0.7340099811553955 0.29158300161361694
          0.5386980175971985 0.8245540261268616 0.17296400666236877 0.5113490223884583 0.854669988155365 0.08978699892759323
          0.7602229714393616 0.3729659914970398 0.5319370031356812 0.7169910073280334 0.41764500737190247 0.558118999004364
          0.7656940221786499 0.46701300144195557 0.44227901101112366 0.7686169743537903 0.6377969980239868 -0.049417998641729355
          0.49181100726127625 -0.3485319912433624 -0.79790198802948 0.46248599886894226 -0.3441289961338043 -0.8171179890632629
          0.46258899569511414 -0.32390299439430237 -0.8252859711647034 0.42135098576545715 -0.2949199974536896 -0.8576040267944336
          0.3306509852409363 -0.32349899411201477 -0.8865770101547241 0.7796459794044495 -0.21358199417591095 -0.5886729955673218
          0.7781919836997986 -0.0011249999515712261 -0.628026008605957 0.6185370087623596 -0.2486259937286377 -0.7453839778900146
          0.8599860072135925 0.25697100162506104 -0.44089600443840027 0.8364859819412231 0.4098060131072998 -0.36379900574684143
          0.6102370023727417 0.7533400058746338 -0.24513299763202667 -0.7834979891777039 0.4199660122394562 0.4579949975013733
          -0.7865229845046997 0.284494012594223 0.5481280088424683 -0.800025999546051 0.12497200071811676 0.5868039727210999
          -0.4540190100669861 0.742438018321991 0.4925979971885681 -0.29259398579597473 0.5203589797019958 0.8022559881210327
          -0.4770280122756958 0.5590310096740723 0.6781799793243408 -0.12162599712610245 0.580528974533081 0.8051049709320068
          -0.6711639761924744 0.6512669920921326 0.35410401225090027 -0.8944349884986877 -0.16478599607944489 -0.4157310128211975
          -0.93402099609375 -0.2331800013780594 -0.27061599493026733 -0.9755799770355225 -0.1576559990644455 -0.15293599665164948
          -0.956138014793396 -0.012120000086724758 0.2926650047302246 -0.9861090183258057 -0.1611820012331009 0.0401110015809536
          -0.8004239797592163 -0.23856599628925323 -0.5499150156974792 -0.6780959963798523 -0.27534300088882446 -0.6814489960670471
          -0.8699889779090881 -0.09839099645614624 0.4831539988517761 -0.9011790156364441 0.02910899929702282 0.4324679970741272
          -0.8977839946746826 -0.1198050007224083 0.42382800579071045 -0.8220450282096863 0.08256199955940247 0.5634049773216248
          0.8681039810180664 -0.16237400472164154 -0.469074010848999 0.3326210081577301 -0.24491900205612183 -0.9107019901275635
          0.8804460167884827 -0.16756199300289154 -0.4435510039329529 0.16935700178146362 -0.21308700740337372 -0.9622430205345154
          0.1371839940547943 -0.2417609989643097 -0.9605889916419983 0.1650180071592331 -0.19495700299739838 -0.9668300151824951
          0.021863000467419624 -0.10586000233888626 -0.9941409826278687 -0.7742419838905334 -0.2350119948387146 -0.5876389741897583
          -0.7723730206489563 -0.2376289963722229 -0.5890430212020874 -0.5899720191955566 -0.22185300290584564 -0.7763469815254211
          -0.8367289900779724 -0.2510479986667633 -0.4866830110549927 0.17098300158977509 0.6204869747161865 0.7653499841690063
          0.03940900042653084 0.49383899569511414 0.8686599731445312 0.20600000023841858 0.39926600456237793 0.8933929800987244
          0.11087799817323685 0.4028330147266388 0.908532977104187 0.5363439917564392 0.43039101362228394 0.7260159850120544
          0.3240790069103241 0.008395999670028687 0.9459930062294006 0.31622400879859924 0.1748970001935959 0.9324229955673218
          0.5073379874229431 0.10101400315761566 0.8558059930801392 0.5288770198822021 0.2641189992427826 0.8065540194511414
          0.5226889848709106 0.059431999921798706 0.8504490256309509 0.6921820044517517 0.20123499631881714 0.6931009888648987
          0.6473739743232727 0.23658399283885956 0.7245240211486816 0.5741339921951294 0.07551799714565277 0.8152710199356079
          0.897828996181488 0.36176198720932007 0.25106000900268555 0.8086140155792236 0.5359650254249573 0.2426619976758957
          0.8508880138397217 0.5223379731178284 0.05614500120282173 0.6397950053215027 0.7681130170822144 -0.025779999792575836
          0.5043690204620361 0.8567929863929749 -0.10732199996709824 0.8320990204811096 0.25659701228141785 0.4916999936103821
          0.9439749717712402 0.21550099551677704 0.24993999302387238 0.4939880073070526 -0.34188398718833923 -0.7994319796562195
          0.5362570285797119 -0.34799399971961975 -0.768979012966156 0.4771389961242676 -0.3049989938735962 -0.8242049813270569
          0.38468000292778015 -0.21514099836349487 -0.8976280093193054 0.44096601009368896 -0.26381099224090576 -0.8578770160675049
          0.647940993309021 -0.23954400420188904 -0.7230430245399475 0.8491680026054382 -0.09408699721097946 -0.5196740031242371
          0.92330002784729 0.07735899835824966 -0.37620899081230164 0.9495660066604614 0.29010799527168274 -0.11899799853563309
          0.8155969977378845 0.5349940061569214 -0.22041499614715576 -0.7127249836921692 0.10014300048351288 0.6942579746246338
          -0.70455002784729 0.21000699698925018 0.6778690218925476 -0.7323409914970398 0.46587899327278137 0.4966210126876831
          -0.8027870059013367 0.00939599983394146 0.5961920022964478 -0.6807010173797607 -0.11590799689292908 0.723334014415741
          -0.6933370232582092 -0.19188199937343597 0.6945970058441162 -0.5912320017814636 0.639054000377655 0.4919910132884979
          -0.30420100688934326 0.4441849887371063 0.8427109718322754 -0.3509970009326935 0.3176079988479614 0.8808670043945312
          -0.255636990070343 0.404772013425827 0.8779569864273071 -0.618632972240448 0.4263260066509247 0.6599540114402771
          -0.6000440120697021 0.5375779867172241 0.592415988445282 0.20479799807071686 0.4065040051937103 0.8903999924659729
          -0.12005399912595749 0.33781298995018005 0.933525025844574 -0.8923320174217224 -0.2487490028142929 -0.3766539990901947
          -0.9528980255126953 -0.2727090120315552 -0.13272300362586975 -0.9644020199775696 -0.22946499288082123 0.13143199682235718
          -0.8055530190467834 -0.2400210052728653 -0.5417320132255554 -0.800508975982666 -0.14411099255084991 0.5817360281944275
          -0.7762089967727661 -0.17328199744224548 0.6061959862709045 -0.8383939862251282 -0.05845300108194351 0.5419210195541382
          -0.8439729809761047 -0.1580670028924942 0.5125659704208374 -0.8218029737472534 -0.15389199554920197 0.5485960245132446
          0.3176349997520447 -0.1730249971151352 -0.9322929978370667 0.17069999873638153 -0.16508199274539948 -0.9713960289955139
          0.1879960000514984 -0.12375699728727341 -0.9743419885635376 0.29405200481414795 -0.07436800003051758 -0.952892005443573
          -0.28665098547935486 -0.17541299760341644 -0.9418389797210693 0.2356709986925125 -0.11809100210666656 -0.9646310210227966
          -0.942920982837677 -0.26298901438713074 -0.20429599285125732 -0.8617209792137146 -0.2592490017414093 -0.43615099787712097
          -0.7160210013389587 -0.26948899030685425 -0.6439639925956726 -0.9059540033340454 -0.2523239850997925 -0.33997198939323425
          -0.9442359805107117 -0.28000399470329285 -0.17325299978256226 0.0047439998015761375 0.23805299401283264 0.9712399840354919
          0.10942000150680542 0.17263199388980865 0.9788900017738342 0.4211899936199188 -0.05150499939918518 0.9055089950561523
          0.12919600307941437 -0.09374099969863892 0.9871780276298523 0.12273400276899338 -0.15265700221061707 0.980629026889801
          0.22376799583435059 -0.1231670007109642 0.9668290019035339 0.6441590189933777 0.06753599643707275 0.7619040012359619
          0.6243410110473633 -0.02092299982905388 0.7808719873428345 0.4040830135345459 -0.07421799749135971 0.9117069840431213
          0.7938399910926819 0.08202599734067917 0.6025689840316772 0.990664005279541 0.12414199858903885 0.056338999420404434
          0.9970809817314148 0.05036399886012077 0.05739299952983856 0.9261239767074585 0.06978700309991837 0.3707070052623749
          0.9936239719390869 0.015269000083208084 0.1117049977183342 0.4768030047416687 -0.3310000002384186 -0.8143079876899719
          0.4578610062599182 -0.29461801052093506 -0.8387870192527771 0.5086569786071777 -0.2683280110359192 -0.8180879950523376
          0.43412500619888306 -0.22534599900245667 -0.8722119927406311 0.34450700879096985 -0.1356090009212494 -0.9289370179176331
          0.5190960168838501 -0.31127700209617615 -0.7960190176963806 0.3894819915294647 -0.1915220022201538 -0.9009010195732117
          0.8629350066184998 -0.15693500638008118 -0.4803270101547241 0.6895430088043213 -0.21138699352741241 -0.6927090287208557
          0.5031390190124512 -0.26336899399757385 -0.8230969905853271 0.9775840044021606 -0.03591100126504898 -0.20746000111103058
          0.9889569878578186 0.09548100084066391 -0.11334700137376785 -0.44500499963760376 0.14699700474739075 0.8833810091018677
          -0.5925970077514648 0.06759600341320038 0.8026580214500427 -0.5372809767723083 -0.06902000308036804 0.8405749797821045
          -0.7156350016593933 -0.24323999881744385 0.6547520160675049 -0.6604160070419312 -0.2245510071516037 0.7165380120277405
          -0.6850870251655579 -0.28020501136779785 0.6724140048027039 -0.6825000047683716 -0.3134799897670746 0.6602460145950317
          -0.6293259859085083 -0.22617800533771515 0.7434999942779541 -0.6149020195007324 -0.2587369978427887 0.744949996471405
          -0.4859580099582672 -0.14629000425338745 0.8616520166397095 -0.40554600954055786 0.22219200432300568 0.8866590261459351
          -0.3230949938297272 0.2527419924736023 0.9119930267333984 0.9466450214385986 0.120899997651577 0.29874101281166077
          -0.2914179861545563 0.17553900182247162 0.9403520226478577 -0.3602199852466583 0.05654599890112877 0.9311519861221313
          -0.19784900546073914 0.22836899757385254 0.9532589912414551 0.7475579977035522 0.13985000550746918 0.6493070125579834
          -0.10805299878120422 0.03988699987530708 0.9933450222015381 -0.9456940293312073 -0.2705250084400177 0.18022200465202332
          -0.8517699837684631 -0.19349999725818634 0.4868740141391754 -0.7838199734687805 -0.1218700036406517 0.608913004398346
          -0.7121120095252991 -0.14486700296401978 0.6869570016860962 -0.6755849719047546 -0.19739200174808502 0.7103670239448547
          -0.7090330123901367 -0.2336989939212799 0.6653249859809875 -0.7641749978065491 -0.15863800048828125 0.6251959800720215
          0.2610659897327423 -0.12372100353240967 -0.957360029220581 0.5491309762001038 -0.16999100148677826 -0.8182650208473206
          0.5077570080757141 -0.1280589997768402 -0.8519290089607239 0.14381100237369537 -0.1269730031490326 -0.9814260005950928
          0.34922000765800476 -0.07826399803161621 -0.9337670207023621 0.19663600623607635 -0.18365800380706787 -0.9631220102310181
          0.15394799411296844 -0.1705780029296875 -0.9732440114021301 -0.31745800375938416 -0.21118399500846863 -0.9244570136070251
          -0.12727400660514832 -0.2813740074634552 -0.9511200189590454 -0.11716900020837784 -0.19910000264644623 -0.9729490280151367
          -0.9505519866943359 -0.2793020009994507 -0.13579699397087097 -0.9430580139160156 -0.3254939913749695 -0.0685259997844696
          -0.9330639839172363 -0.27309298515319824 -0.23412099480628967 -0.937736988067627 -0.34730398654937744 -0.00546099990606308
          -0.8729079961776733 -0.28883200883865356 -0.3932029902935028 -0.49059298634529114 -0.27462801337242126 -0.8269810080528259
          -0.768688976764679 -0.26948899030685425 -0.5800809860229492 -0.9230369925498962 -0.260140985250473 -0.2834259867668152
          -0.01858600042760372 -0.1745859980583191 0.9844670295715332 -0.030835000798106194 -0.1694280058145523 0.9850599765777588