<?xml version="1.0"?>
<VTKFile type="PolyData" version="0.1" byte_order="LittleEndian" header_type="UInt32" compressor="vtkZLibDataCompressor">
  <PolyData>
    <Piece NumberOfPoints="2662" NumberOfVerts="0" NumberOfLines="0" NumberOfStrips="0" NumberOfPolys="5320">
      <PointData Normals="Normals">
        <DataArray type="Float32" Name="Normals" NumberOfComponents="3" format="ascii" RangeMin="0.9999992758739371" RangeMax="1.0000007665708275">
          0.7472540140151978 -0.3795529901981354 0.5454829931259155 0.7404710054397583 -0.15246699750423431 0.6545659899711609
          0.6066120266914368 -0.40858298540115356 0.6819689869880676 0.5433130264282227 -0.6452929973602295 0.5370360016822815
          0.8100749850273132 -0.20932699739933014 0.547685980796814 0.7909669876098633 -0.48500001430511475 0.37302398681640625
          0.6759529709815979 -0.5974730253219604 0.43140900135040283 0.5653849840164185 -0.3079110085964203 0.7651990056037903
          0.6401410102844238 -0.22464600205421448 0.7346799969673157 0.7833570241928101 0.0023960000835359097 0.6215680241584778
          0.8098710179328918 -0.023500999435782433 0.5861369967460632 0.2943499982357025 -0.6987040042877197 0.6520509719848633
          0.4562950134277344 -0.48579999804496765 0.745514988899231 0.46448400616645813 -0.840041995048523 0.28032898902893066
          0.3266429901123047 -0.8015869855880737 0.5007619857788086 0.8313500285148621 -0.3250719904899597 0.45076099038124084
          0.7937260270118713 -0.06259500235319138 0.6050459742546082 0.6766729950904846 -0.6634010076522827 0.3193950057029724
          0.6419699788093567 -0.75798499584198 0.1154709979891777 0.805836021900177 -0.5646629929542542 0.17827799916267395
          0.440187007188797 -0.4174349904060364 0.7949740290641785 0.6577939987182617 -0.13255800306797028 0.7414420247077942
          0.4590499997138977 -0.3780690133571625 0.8039510250091553 0.5681599974632263 -0.21360699832439423 0.7947120070457458
          0.4177350103855133 -0.35404500365257263 0.8367490172386169 0.6188799738883972 -0.014166999608278275 0.7853580117225647
          0.7866449952125549 -0.0039090001955628395 0.6173930168151855 0.6764289736747742 0.05610499903559685 0.7343670129776001
          0.8094840049743652 0.032781001180410385 0.5862269997596741 0.13149799406528473 -0.9042649865150452 0.4062170088291168
          0.008112999610602856 -0.8258569836616516 0.563821017742157 0.2701509892940521 -0.6494219899177551 0.7108229994773865
          0.06616699695587158 -0.9963669776916504 0.0536159984767437 0.3318060040473938 -0.9432870149612427 -0.010745000094175339
          0.7616950273513794 -0.5495129823684692 0.3433000147342682 0.7879989743232727 -0.2252579927444458 0.5729889869689941
          0.7322700023651123 -0.027154000476002693 0.6804730296134949 0.3763189911842346 -0.9149159789085388 -0.14598600566387177
          0.6266779899597168 -0.7792779803276062 0.0005910000181756914 0.20492300391197205 -0.5771819949150085 0.7904859781265259
          0.38882899284362793 -0.18400900065898895 0.9027469754219055 0.2665660083293915 -0.3848649859428406 0.8836410045623779
          0.11092299968004227 -0.528954029083252 0.8413699865341187 0.45848000049591064 -0.07968199998140335 0.8851249814033508
          0.6448460221290588 -0.018960999324917793 0.7640770077705383 0.7758169770240784 0.0010049999691545963 0.6309570074081421
          0.6443250179290771 -0.10412000119686127 0.7576310038566589 0.7084289789199829 -0.1832199990749359 0.6815850138664246
          0.7693830132484436 -0.16637800633907318 0.6167399883270264 -0.09886699914932251 -0.9579650163650513 0.26930999755859375
          -0.09662400186061859 -0.7063390016555786 0.7012490034103394 -0.25461500883102417 -0.8824769854545593 0.39548200368881226
          -0.14873500168323517 -0.985388994216919 0.08298300206661224 -0.2021850049495697 -0.9761520028114319 -0.07905100286006927
          -0.05214599892497063 -0.9866340160369873 -0.1543859988451004 0.07160300016403198 -0.9597970247268677 -0.2714099884033203
          0.6715970039367676 -0.7250099778175354 0.15270200371742249 0.7188860177993774 -0.6285889744758606 0.29677900671958923
          0.7376869916915894 -0.3297770023345947 0.589123010635376 0.7254250049591064 -0.4946439862251282 0.4786289930343628
          0.6975610256195068 -0.08977700024843216 0.7108790278434753 0.15274299681186676 -0.9407169818878174 -0.3028559982776642
          0.3240860104560852 -0.9037399888038635 -0.27968400716781616 0.5587679743766785 -0.8084449768066406 -0.18491899967193604
          0.12268300354480743 -0.403562992811203 0.9066889882087708 0.2417459934949875 -0.19092300534248352 0.9513710141181946
          0.4256240129470825 -0.15868499875068665 0.8908780217170715 0.7232540249824524 -0.1061910018324852 0.6823679804801941
          0.687736988067627 -0.006949999835342169 0.7259269952774048 0.39291098713874817 -0.14435000717639923 0.9081760048866272
          0.5339900255203247 -0.1420219987630844 0.8334770202636719 0.7233200073242188 -0.22950699925422668 0.6512560248374939
          0.7241560220718384 -0.2211720049381256 0.6532080173492432 0.6195229887962341 -0.17042499780654907 0.7662550210952759
          0.7184910178184509 -0.21737299859523773 0.6606969833374023 -0.26698899269104004 -0.9539099931716919 0.1370130032300949
          -0.28248000144958496 -0.8083320260047913 0.5165309906005859 -0.2815459966659546 -0.711899995803833 0.6433749794960022
          -0.04839999973773956 -0.5908439755439758 0.8053330183029175 -0.38006800413131714 -0.840412974357605 0.38633298873901367
          -0.38578400015830994 -0.9000149965286255 0.2028380036354065 -0.13917000591754913 -0.9200509786605835 -0.3662480115890503
          -0.23061800003051758 -0.9604390263557434 -0.1561180055141449 -0.2910960018634796 -0.9558899998664856 0.03922099992632866
          -0.11856000125408173 -0.9199489951133728 -0.3736819922924042 -0.11220300197601318 -0.9048330187797546 -0.4107150137424469
          0.01575700007379055 -0.8357149958610535 -0.548937976360321 0.7271170020103455 -0.6846809983253479 -0.050133999437093735
          0.7928209900856018 -0.5615739822387695 0.2367900013923645 0.7477579712867737 -0.47542300820350647 0.4634990096092224
          0.7209429740905762 -0.217072993516922 0.6581190228462219 0.6639890074729919 -0.056825000792741776 0.7455800175666809
          0.32707101106643677 -0.8051580190658569 -0.494717001914978 0.5418270230293274 -0.7338719964027405 -0.40970098972320557
          0.0857430025935173 -0.4184339940547943 0.9041910171508789 0.29507800936698914 -0.24510399997234344 0.9235000014305115
          0.25582700967788696 -0.18255099654197693 0.9493299722671509 0.5918620228767395 -0.08033599704504013 0.8020259737968445
          0.6999509930610657 -0.21013900637626648 0.6825760006904602 0.6789360046386719 -0.05934000015258789 0.7317950129508972
          0.7025009989738464 -0.024500999599695206 0.7112600207328796 0.18078899383544922 -0.07074800133705139 0.980974018573761
          0.3154410123825073 -0.03377100080251694 0.9483439922332764 0.6989210247993469 -0.15150399506092072 0.6989669799804688
          0.5421959757804871 -0.047074999660253525 0.8389319777488708 0.7510010004043579 -0.24932800233364105 0.6114199757575989
          0.7597060203552246 -0.12109900265932083 0.6388909816741943 0.7291150093078613 -0.06510300189256668 0.6812869906425476
          -0.39948898553848267 -0.7933530211448669 0.4593459963798523 -0.20597000420093536 -0.639149010181427 0.7409890294075012
          -0.42572900652885437 -0.7083240151405334 0.5630559921264648 -0.422340989112854 -0.7932419776916504 0.43862900137901306
          -0.36079299449920654 -0.895226001739502 0.2615320086479187 -0.14216899871826172 -0.9605759978294373 -0.23891900479793549
          -0.15118999779224396 -0.8332819938659668 -0.5317739844322205 -0.1260409951210022 -0.7726960182189941 -0.6221370100975037
          -0.152989000082016 -0.8984079957008362 -0.41165199875831604 -0.022182000800967216 -0.9938650131225586 0.10835699737071991
          -0.14567899703979492 -0.8665069937705994 -0.4774340093135834 -0.10117900371551514 -0.7567139863967896 -0.6458680033683777
          -0.15843099355697632 -0.9155470132827759 -0.36969301104545593 0.13019399344921112 -0.715723991394043 -0.6861400008201599
          -0.0927949994802475 -0.6352120041847229 -0.766743004322052 -0.0016469999682158232 -0.5477610230445862 -0.836633026599884
          0.7590019702911377 -0.6258350014686584 -0.17957499623298645 0.8779780268669128 -0.4683130085468292 0.0991860032081604
          0.859516978263855 -0.3505670130252838 0.3719319999217987 0.7859119772911072 -0.29245099425315857 0.5448070168495178
          0.7393490076065063 -0.11247800290584564 0.6638609766960144 0.31090399622917175 -0.6717780232429504 -0.6723489761352539
          0.49539700150489807 -0.5802249908447266 -0.6464679837226868 0.6888049840927124 -0.6225619912147522 -0.3714359998703003
          0.6080740094184875 -0.5940629839897156 -0.5266259908676147 0.0994739979505539 -0.3858349919319153 0.9171890020370483
          -0.10276699811220169 -0.5181599855422974 0.8490869998931885 0.19343699514865875 -0.24276700615882874 0.9506030082702637
          0.10174600034952164 -0.11524300277233124 0.9881129860877991 0.6243039965629578 -0.07524099946022034 0.7775499820709229
          0.7269750237464905 -0.09937000274658203 0.6794360280036926 0.7571250200271606 -0.19776999950408936 0.6226149797439575
          0.7249339818954468 -0.27900800108909607 0.6297829747200012 0.7601640224456787 -0.2651689946651459 0.5931580066680908
          0.6190000176429749 -0.05282999947667122 0.7836120128631592 -0.07694099843502045 -0.023530999198555946 0.996757984161377
          -0.09120000153779984 0.00076299998909235 0.9958320260047913 0.564740002155304 0.021090999245643616 0.8249989748001099
          0.14997899532318115 0.04371599853038788 0.9877219796180725 0.33717799186706543 0.06683699786663055 0.9390649795532227
          0.6685789823532104 -0.029172999784350395 0.7430679798126221 0.5731760263442993 0.07204800099134445 0.8162590265274048
          0.8082929849624634 -0.13300199806690216 0.5735620260238647 0.8417860269546509 0.0566600002348423 0.5368289947509766
          0.8164290189743042 0.09026899933815002 0.5703459978103638 0.7299110293388367 0.038270000368356705 0.6824700236320496
          -0.27582499384880066 -0.5426689982414246 0.7933670282363892 -0.47728899121284485 -0.7324519753456116 0.4855000078678131
          -0.47770199179649353 -0.6601999998092651 0.5795999765396118 -0.2983120083808899 -0.8626710176467896 0.40842199325561523
          -0.40398499369621277 -0.6782879829406738 0.6137769818305969 -0.4156000018119812 -0.6545839905738831 0.6315029859542847
          -0.13954900205135345 -0.9115650057792664 0.3867500126361847 0.20533399283885956 -0.9334369897842407 -0.2941659986972809
          -0.10262899845838547 -0.9334849715232849 -0.3436169922351837 -0.06626100093126297 -0.8073840141296387 0.5862950086593628
          0.09768799692392349 -0.9522730112075806 0.28919199109077454 0.23927100002765656 -0.9689949750900269 0.061625998467206955
          0.28800201416015625 -0.9384620189666748 -0.19064100086688995 -0.04739899933338165 -0.9100250005722046 -0.41183599829673767
          -0.10598500072956085 -0.7832340002059937 -0.6126270294189453 0.050182998180389404 -0.6997159719467163 -0.7126560211181641
          0.024017000570893288 -0.6037769913673401 -0.7967910170555115 0.12298399955034256 -0.6392120122909546 -0.759132981300354
          0.16568200290203094 -0.41622599959373474 -0.8940389752388 -0.006560000125318766 -0.35453400015830994 -0.9350200295448303
          -0.017170000821352005 -0.3654539883136749 -0.930670976638794 0.21497400104999542 -0.5807979702949524 -0.7851499915122986
          0.2211190015077591 -0.4471690058708191 -0.866686999797821 0.002976000076159835 -0.3647890090942383 -0.9310849905014038
          0.09989699721336365 -0.39566901326179504 -0.9129440188407898 0.7592859864234924 -0.4868659973144531 -0.4317939877510071
          0.8896780014038086 -0.43900400400161743 -0.12549300491809845 0.9486770033836365 -0.28415000438690186 0.13881799578666687
          0.8796730041503906 -0.22318799793720245 0.41995498538017273 0.7312840223312378 -0.04659400135278702 0.6804800033569336
          0.36965298652648926 -0.5301809906959534 -0.7630630135536194 0.5805609822273254 -0.46084699034690857 -0.6712440252304077
          -0.039496999233961105 -0.3165470063686371 0.9477540254592896 0.07057700306177139 -0.1627029925584793 0.9841480255126953
          -0.0453919991850853 -0.06692100316286087 0.9967250227928162 0.6628389954566956 -0.03631899878382683 0.7478809952735901
          0.8671349883079529 -0.12249600142240524 0.4827739894390106 0.8108819723129272 -0.048618998378515244 0.5831859707832336
          0.9141380190849304 -0.09283199906349182 0.3946320116519928 0.8933860063552856 -0.035530999302864075 0.4478830099105835
          -0.32840201258659363 0.0030360000673681498 0.9445329904556274 -0.4457710087299347 -0.02853200025856495 0.8946920037269592
          -0.406125009059906 0.023768000304698944 0.9135079979896545 -0.41215500235557556 -0.03741699829697609 0.9103450179100037
          -0.21318399906158447 -0.05602499842643738 0.9754049777984619 0.09822700172662735 -0.0005890000029467046 0.9951639771461487
          -0.11218699812889099 -0.07241199910640717 0.9910449981689453 0.6242600083351135 0.08137399703264236 0.7769669890403748
          0.6643880009651184 0.037310998886823654 0.7464560270309448 0.4235999882221222 0.016341999173164368 0.9057019948959351
          0.22833199799060822 -0.04535200074315071 0.9725260138511658 0.39910900592803955 0.12252199649810791 0.9086809754371643
          0.5103579759597778 0.10257600247859955 0.8538219928741455 0.7023460268974304 0.08571100234985352 0.7066569924354553
          0.9159979820251465 0.1308470070362091 0.37924399971961975 0.9122530221939087 0.2707589864730835 0.3073819875717163
          0.7898280024528503 0.0715010017156601 0.6091470122337341 0.8459799885749817 0.07487399876117706 0.5279319882392883
          0.885653018951416 0.22192299365997314 0.40788400173187256 0.9184809923171997 0.1733970046043396 0.3554239869117737
          -0.5599240064620972 -0.47647398710250854 0.6778339743614197 -0.3110490143299103 -0.4323050081729889 0.8463810086250305
          -0.5806180238723755 -0.570904016494751 0.5804749727249146 -0.4642849862575531 -0.5790960192680359 0.6701400279998779
          -0.3066439926624298 -0.7665939927101135 0.5641829967498779 0.2463649958372116 -0.8994439840316772 -0.3609760105609894
          0.7815629839897156 -0.5880399942398071 -0.20824800431728363 0.9517229795455933 -0.28455299139022827 -0.11511799693107605
          -0.005867000203579664 -0.8598660230636597 0.5104860067367554 -0.10241600126028061 -0.6820999979972839 0.7240509986877441
          -0.11545199900865555 -0.7555810213088989 0.6448010206222534 -0.17491699755191803 -0.6318380236625671 0.7551059722900391
          -0.07788699865341187 -0.6268640160560608 0.7752259969711304 0.08864299952983856 -0.9884340167045593 0.1230510026216507
          0.25289100408554077 -0.9662839770317078 0.04839500039815903 0.11953700333833694 -0.9488549828529358 0.2922079861164093
          -0.045426998287439346 -0.8807399868965149 0.47141700983047485 0.3911750018596649 -0.9054179787635803 -0.16492299735546112
          0.3572959899902344 -0.8764830231666565 -0.32267099618911743 0.24952900409698486 -0.9299349784851074 -0.27010300755500793
          0.1165969967842102 -0.8203259706497192 -0.5598840117454529 0.8330289721488953 -0.5329830050468445 -0.1482969969511032
          0.33326300978660583 -0.9026169776916504 -0.27243301272392273 0.31580299139022827 -0.672950029373169 -0.6688849925994873
          0.18386200070381165 -0.5426099896430969 -0.8196150064468384 0.4775629937648773 -0.4887639880180359 -0.7300980091094971
          0.4934990108013153 -0.2849839925765991 -0.8217319846153259 0.00725799985229969 -0.2515780031681061 -0.9678099751472473
          0.35418498516082764 -0.25984299182891846 -0.8983510136604309 0.15782900154590607 -0.21676400303840637 -0.9633809924125671
          -0.03354300186038017 -0.2800750136375427 -0.9593920111656189 0.02254300005733967 -0.23971199989318848 -0.9705820083618164
          0.3650070130825043 -0.4500479996204376 -0.8150010108947754 0.3241339921951294 -0.3722490072250366 -0.8696939945220947
          0.2679530084133148 -0.3303990066051483 -0.905007004737854 0.1930759996175766 -0.27064600586891174 -0.9431179761886597
          0.8382710218429565 -0.2908720076084137 -0.46118900179862976 0.8960300087928772 -0.36376601457595825 -0.2545680105686188
          0.970786988735199 -0.23885400593280792 0.022846000269055367 0.8836709856987 -0.10849200189113617 0.455363005399704
          0.4299969971179962 -0.38020598888397217 -0.8188689947128296 0.665207028388977 -0.31130099296569824 -0.6786689758300781
          -0.16840100288391113 -0.10801800340414047 0.979781985282898 -0.23814800381660461 -0.2764959931373596 0.9310399889945984
          0.966251015663147 0.05479700118303299 0.25170499086380005 0.9249340295791626 -0.11028899997472763 0.3637770116329193
          0.8629069924354553 -0.03127700090408325 0.5043929815292358 0.9253590106964111 -0.04228299856185913 0.3767260015010834
          0.9849849939346313 0.05377199873328209 0.16405099630355835 0.9670559763908386 0.17714600265026093 0.18281599879264832
          -0.41934001445770264 -0.05795200169086456 0.9059770107269287 -0.5256659984588623 -0.0744670033454895 0.8474249839782715
          -0.47510701417922974 -0.05199600011110306 0.8783900141716003 -0.47843998670578003 -0.02174600027501583 0.8778510093688965
          -0.4770050048828125 -0.07053600251674652 0.8760660290718079 -0.41714799404144287 -0.06641200184822083 0.9064090251922607
          -0.5111179947853088 -0.03298399969935417 0.8588780164718628 -0.3522399961948395 -0.05440700054168701 0.9343270063400269
          -0.4401339888572693 -0.027302000671625137 0.8975170254707336 -0.2620350122451782 -0.07506600022315979 0.9621350169181824
          0.05680299922823906 -0.1021289974451065 0.9931480288505554 -0.007573000155389309 -0.11359599977731705 0.9934980273246765
          -0.18247699737548828 -0.10130099952220917 0.977977991104126 -0.30492499470710754 -0.10588599741458893 0.9464719891548157
          0.6205430030822754 0.08323100209236145 0.7797430157661438 0.4159890115261078 -0.05556999891996384 0.9076700210571289
          0.5325210094451904 -0.018223000690340996 0.8462210297584534 0.12183800339698792 -0.09906800091266632 0.9875940084457397
          0.6714509725570679 0.004497000016272068 0.7410359978675842 0.7550780177116394 0.06848099827766418 0.6520479917526245
          0.9256899952888489 0.3460949957370758 0.1527000069618225 0.9104999899864197 0.3633820116519928 0.19734300673007965
          0.9573869705200195 0.26444900035858154 0.1160850003361702 0.9340429902076721 0.3484500050544739 -0.07840300351381302
          0.8659089803695679 0.4895719885826111 -0.102572001516819 0.9360870122909546 0.11193399876356125 0.3334830105304718
          0.9403030276298523 0.04652399942278862 0.3371430039405823 0.8309990167617798 -0.016913000494241714 0.5560169816017151
          0.834043025970459 -0.02458599954843521 0.5511519908905029 0.9865319728851318 0.1280059963464737 0.10183099657297134
          -0.6361520290374756 -0.44492998719215393 0.6303550004959106 -0.592490017414093 -0.44763800501823425 0.6697580218315125
          -0.5946549773216248 -0.31390100717544556 0.7401700019836426 -0.4647110104560852 -0.3739030063152313 0.8026459813117981
          -0.13961200416088104 -0.5113649964332581 0.8479470014572144 -0.3597809970378876 -0.5009739995002747 0.7871360182762146
          -0.3261300027370453 -0.5551869869232178 0.7651190161705017 -0.2882780134677887 -0.8147519826889038 0.5030660033226013
          -0.3501180112361908 -0.6623889803886414 0.6623119711875916 -0.1780339926481247 -0.48830199241638184 0.8543210029602051
          0.2918660044670105 -0.9469879865646362 -0.13427099585533142 0.038541000336408615 -0.9944739937782288 0.09765099734067917
          0.8110489845275879 -0.5507180094718933 0.1972550004720688 -0.14800600707530975 -0.9608880281448364 0.23407100141048431
          -0.1303510069847107 -0.9036779999732971 0.40789100527763367 0.8103809952735901 -0.5501099824905396 0.20164500176906586
          0.31862500309944153 -0.7249580025672913 -0.6106669902801514 0.4532940089702606 -0.808007001876831 -0.37636199593544006
          0.4557960033416748 -0.6903790235519409 -0.5618060231208801 0.5390459895133972 -0.6334130167961121 -0.5551729798316956
          0.6069999933242798 -0.2542079985141754 -0.7529469728469849 0.4622820019721985 -0.3882879912853241 -0.7972000241279602
          0.4800570011138916 -0.5413910150527954 -0.6902480125427246 0.4248510003089905 -0.4507260024547577 -0.7850790023803711
          0.4507780075073242 -0.6630079746246338 -0.5976790189743042 0.5213209986686707 -0.673600971698761 -0.5239139795303345
          0.46010100841522217 -0.09423000365495682 -0.8828520178794861 0.036382000893354416 -0.11877100169658661 -0.9922549724578857
          0.2336519956588745 0.03251900151371956 -0.971776008605957 0.24956700205802917 -0.0815190002322197 -0.9649199843406677
          0.4221529960632324 -0.2881929874420166 -0.8594949841499329 0.3133080005645752 -0.17713899910449982 -0.9329839944839478
          0.3702999949455261 -0.1783740073442459 -0.9116250276565552 0.7574689984321594 -0.11681000143289566 -0.6423360109329224
          0.9496920108795166 -0.2209559977054596 -0.22195599973201752 0.8951060175895691 -0.05586700141429901 -0.4423390030860901
          0.9698449969291687 -0.08230499923229218 -0.22940599918365479 0.9567130208015442 -0.07849500328302383 0.2802470028400421
          0.9966650009155273 -0.07767699658870697 -0.02498999983072281 0.6082640290260315 -0.12415599822998047 -0.7839639782905579
          -0.42531299591064453 -0.21212700009346008 0.8798360228538513 -0.4468989968299866 -0.1223910003900528 0.8861719965934753
          0.9787439703941345 0.20496000349521637 0.007178000174462795 0.966310977935791 0.2500849962234497 -0.06083099916577339
          0.9828109741210938 -0.0048699998296797276 0.18455100059509277 0.975924015045166 0.18420900404453278 -0.11678700149059296
          0.8917700052261353 0.45185399055480957 -0.02395699918270111 -0.5337830185890198 -0.13877899944782257 0.8341559767723083
          -0.48279398679733276 -0.2670220136642456 0.8340319991111755 -0.3418470025062561 -0.04297700151801109 0.938772976398468
          -0.43852901458740234 -0.06240599974989891 0.8965479731559753 -0.4905329942703247 -0.08960399776697159 0.866802990436554
          -0.47843998670578003 -0.07845599949359894 0.8746079802513123 -0.4051069915294647 -0.09527400135993958 0.9092919826507568
          -0.38137298822402954 -0.09843499958515167 0.9191660284996033 -0.38200899958610535 -0.0950620025396347 0.9192569851875305
          -0.29994601011276245 -0.10184700042009354 0.9485039710998535 -0.020918000489473343 -0.09097400307655334 0.9956340193748474
          -0.4052349925041199 -0.08664099872112274 0.9100980162620544 0.5735269784927368 -0.08544900268316269 0.8147180080413818
          0.3062340021133423 -0.061799999326467514 0.9499480128288269 0.4566960036754608 -0.06651700288057327 0.887133002281189
          0.7750589847564697 -0.09036599844694138 0.6253929734230042 0.8692060112953186 0.4871169924736023 -0.08483400195837021
          0.8519200086593628 0.5010190010070801 -0.15235799551010132 0.9741619825363159 0.200654998421669 -0.10366799682378769
          0.8500750064849854 0.3922710120677948 -0.35141900181770325 0.9323989748954773 0.21817900240421295 -0.28815001249313354
          0.6707680225372314 0.5558090209960938 -0.49106600880622864 0.7425510287284851 0.6039180159568787 -0.28965601325035095
          0.9967790246009827 0.05724100023508072 0.05617599934339523 0.9733060002326965 0.0358240008354187 0.22669899463653564
          0.8979939818382263 -0.043435998260974884 0.437857985496521 0.9962329864501953 0.0664990022778511 0.05565999820828438
          0.8655440211296082 -0.06663300096988678 0.496381014585495 0.8280829787254333 -0.08201000094413757 0.5545750260353088
          0.8712760210037231 -0.09165900200605392 0.48215898871421814 0.9819779992103577 0.0740009993314743 -0.17390300333499908
          -0.498196005821228 -0.45447099208831787 0.738415002822876 -0.009732999838888645 -0.4101639986038208 0.9119600057601929
          -0.03878600150346756 -0.439844012260437 0.8972359895706177 -0.20449699461460114 -0.45563000440597534 0.8663619756698608
          -0.4316689968109131 -0.3600130081176758 0.8270750045776367 -0.6318010091781616 -0.3163830041885376 0.7076230049133301
          -0.606719970703125 -0.42538198828697205 0.671521008014679 -0.5342350006103516 -0.513280987739563 0.6716660261154175
          -0.5478749871253967 -0.6978359818458557 0.4613659977912903 -0.5447890162467957 -0.7694429755210876 0.33340999484062195
          -0.36636099219322205 -0.8873270153999329 0.2800549864768982 -0.033893998712301254 -0.91908198595047 0.3926059901714325
          -0.5724390149116516 -0.5574600100517273 0.6012920141220093 -0.32396399974823 -0.3238050043582916 0.8889309763908386
          -0.14429700374603271 -0.3350139856338501 0.9310979843139648 -0.031134000048041344 -0.9995030164718628 -0.004947999957948923
          0.1988680064678192 -0.9480810165405273 -0.24818100035190582 0.41197699308395386 -0.8618990182876587 -0.29564300179481506
          -0.04295700043439865 -0.944229006767273 0.32647499442100525 0.8053920269012451 -0.5456709861755371 0.23148700594902039
          -0.36681100726127625 -0.9302840232849121 -0.004641999956220388 0.4902929961681366 -0.7682880163192749 -0.41151800751686096
          0.49327701330184937 -0.3020550012588501 -0.815746009349823 0.495712012052536 -0.12899699807167053 -0.8588529825210571
          0.6177409887313843 -0.08373499661684036 -0.7819110155105591 0.24063999950885773 -0.32676398754119873 -0.9139569997787476
          0.3061400055885315 -0.2987529933452606 -0.9038940072059631 0.33114999532699585 -0.5391219854354858 -0.7743939757347107
          0.3199619948863983 -0.6519740223884583 -0.6874250173568726 0.25484299659729004 -0.3771980106830597 -0.8903800249099731
          0.3665750026702881 -0.830020010471344 -0.4203450083732605 0.3506790101528168 -0.7815409898757935 -0.5159630179405212
          0.20242999494075775 -0.7936570048332214 -0.5737000107765198 0.6165860295295715 0.041572000831365585 -0.7861890196800232
          0.46790799498558044 0.02419999986886978 -0.8834459781646729 0.054878998547792435 0.14952600002288818 -0.9872339963912964
          0.0711119994521141 0.08951699733734131 -0.9934430122375488 0.14264899492263794 0.2762160003185272 -0.9504500031471252
          0.49667200446128845 0.15873099863529205 -0.8533009886741638 0.38783499598503113 0.15217100083827972 -0.909080982208252
          0.4915449917316437 0.04481999948620796 -0.8696979880332947 0.31505900621414185 0.12301699817180634 -0.9410660266876221
          0.47610899806022644 -0.08425600081682205 -0.8753399848937988 0.7833399772644043 -0.02536500059068203 -0.6210749745368958
          0.693494975566864 0.017294999212026596 -0.7202540040016174 0.8465870022773743 0.03367200121283531 -0.53118497133255
          0.9485909938812256 0.05512699857354164 -0.31166499853134155 0.9908409714698792 0.051068998873233795 -0.12500600516796112
          0.9139360189437866 0.29627299308776855 -0.27738699316978455 0.8566169738769531 0.4652790129184723 -0.22298699617385864
          0.9440159797668457 0.19979800283908844 -0.26251599192619324 0.8714159727096558 0.2965089976787567 -0.3907890021800995
          0.7839789986610413 0.44161200523376465 -0.4362980127334595 0.671334981918335 0.6278460025787354 -0.3938499987125397
          -0.2940329909324646 -0.40223801136016846 0.8670349717140198 -0.2593649923801422 -0.2098200023174286 0.9427120089530945
          -0.32283198833465576 -0.024508999660611153 0.9461389780044556 -0.37093299627304077 0.0059090000577270985 0.9286410212516785
          -0.355446994304657 -0.00042299999040551484 0.9346969723701477 -0.5395820140838623 0.005537999793887138 0.8419150114059448
          -0.4846310019493103 -0.09273000061511993 0.8697900176048279 -0.5188509821891785 -0.028231000527739525 0.8543980121612549
          -0.6642919778823853 0.005634999834001064 0.7474520206451416 -0.5825139880180359 -0.07066699862480164 0.8097429871559143
          -0.2660599946975708 -0.07287599891424179 0.9611979722976685 0.3600029945373535 -0.11785999685525894 0.9254770278930664
          0.3111729919910431 -0.11191000044345856 0.9437410235404968 -0.25723201036453247 -0.07491099834442139 0.9634420275688171
          0.10642900317907333 -0.02502799965441227 0.994005024433136 -0.15702800452709198 -0.05951099842786789 0.98580002784729
          -0.1791359931230545 -0.06271900236606598 0.9818230271339417 -0.516493022441864 -0.046487998217344284 0.8550289869308472
          0.4921390116214752 -0.10458499938249588 0.8642119765281677 0.6993839740753174 -0.12700200080871582 0.7033720016479492
          0.8601809740066528 -0.12802599370479584 0.49365800619125366 0.7231709957122803 0.5904920101165771 -0.3582490086555481
          0.6689199805259705 0.6579769849777222 -0.34584999084472656 0.828719973564148 0.19890999794006348 -0.523123025894165
          0.6749849915504456 0.3406270146369934 -0.6544979810714722 0.8957759737968445 0.08914399892091751 -0.4354749917984009
          0.6104379892349243 0.6164960265159607 -0.4972899854183197 0.5234010219573975 0.5929509997367859 -0.6119310259819031
          0.5425400137901306 0.47523701190948486 -0.6926760077476501 0.5253000259399414 0.664139986038208 -0.5319569706916809
          0.9684889912605286 0.05313299968838692 -0.2433219999074936 0.9870179891586304 -0.053227998316287994 0.15153199434280396