<?xml version="1.0"?>
<VTKFile type="PolyData" version="0.1" byte_order="LittleEndian" header_type="UInt32" compressor="vtkZLibDataCompressor">
  <PolyData>
    <Piece NumberOfPoints="1502" NumberOfVerts="0" NumberOfLines="0" NumberOfStrips="0" NumberOfPolys="3001">
      <PointData Normals="Normals">
        <DataArray type="Float32" Name="Normals" NumberOfComponents="3" format="ascii" RangeMin="0.9999993104700583" RangeMax="1.0000007490678569">
          0.9552040100097656 -0.157709002494812 -0.2504270076751709 0.9625049829483032 -0.14471900463104248 -0.229436993598938
          0.9168679714202881 -0.12123099714517593 0.3803369998931885 0.9669730067253113 -0.1926880031824112 -0.16683800518512726
          0.8787109851837158 -0.1225930005311966 -0.461342990398407 0.8646180033683777 -0.15351200103759766 -0.4784030020236969
          0.9684180021286011 -0.12337999790906906 -0.21666400134563446 0.8466129899024963 -0.1485150009393692 0.5110679864883423
          0.9675080180168152 -0.1689170002937317 -0.1881379932165146 0.36680999398231506 -0.03780600056052208 0.9295269846916199
          -0.06477200239896774 0.03321800008416176 0.9973469972610474 0.7487210035324097 -0.06041000038385391 0.6601269841194153
          -0.04731699824333191 0.06507299840450287 0.996757984161377 0.9906229972839355 -0.10384400188922882 -0.08878500014543533
          0.8851040005683899 -0.1985670030117035 -0.4209049940109253 0.9228760004043579 -0.21706099808216095 -0.3180930018424988
          0.9274089932441711 -0.12205299735069275 -0.3535749912261963 0.7729290127754211 -0.11073800176382065 -0.624754011631012
          0.724032998085022 -0.12405700236558914 -0.6785179972648621 0.7257410287857056 -0.137581005692482 -0.6740710139274597
          0.9512090086936951 -0.1832440048456192 0.24824100732803345 0.6154329776763916 -0.06411399692296982 0.7855769991874695
          0.9574980139732361 -0.17425599694252014 -0.22985300421714783 0.06016400083899498 0.045850999653339386 0.9971349835395813
          -0.3348509967327118 0.08488699793815613 0.9384400248527527 -0.46557000279426575 0.08352400362491608 0.8810610175132751
          -0.4374780058860779 0.0989060029387474 0.8937730193138123 -0.009189000353217125 0.023048000410199165 0.9996920228004456
          0.6536939740180969 -0.06342300027608871 0.7540969848632812 0.9918540120124817 -0.08754599839448929 -0.09252600371837616
          -0.33744800090789795 0.07080800086259842 0.9386770129203796 -0.3800790011882782 0.10466700047254562 0.9190130233764648
          0.9522380232810974 -0.08830499649047852 -0.2923099994659424 0.8153259754180908 -0.20416800677776337 -0.5418109893798828
          0.9126290082931519 -0.19324199855327606 -0.3602289855480194 0.8045030236244202 -0.06394000351428986 -0.5904979705810547
          0.6353359818458557 -0.029639000073075294 -0.7716670036315918 0.6007930040359497 -0.09750699996948242 -0.7934359908103943
          0.5868340134620667 -0.09809199720621109 -0.8037440180778503 0.5990750193595886 -0.07023900002241135 -0.7976059913635254
          0.793624997138977 -0.16015200316905975 -0.5869500041007996 0.9786199927330017 -0.1738090068101883 0.10996799916028976
          0.5017250180244446 -0.06255900114774704 0.8627619743347168 0.1700340062379837 0.03084699995815754 0.9849550127983093
          -0.3828060030937195 0.10931500047445297 0.9173380136489868 -0.5748710036277771 0.09877700358629227 0.8122599720954895
          -0.6237990260124207 0.12277299910783768 0.7718819975852966 -0.6362069845199585 0.1810930073261261 0.7499639987945557
          0.05516299977898598 0.013496999628841877 0.998386025428772 -0.1588210016489029 -0.010623999871313572 0.9872499704360962
          0.8889009952545166 -0.128930002450943 0.4395819902420044 0.9031059741973877 -0.06262800097465515 -0.4248259961605072
          -0.5488100051879883 0.06624600291252136 0.8333179950714111 0.7909820079803467 -0.03570200130343437 -0.6107969880104065
          0.9653840065002441 -0.10814300179481506 -0.23735900223255157 0.578620970249176 0.038359999656677246 -0.8146939873695374
          0.48442399501800537 -0.03974900022149086 -0.8739299774169922 0.49915599822998047 0.08352000266313553 -0.8624780178070068
          0.4798389971256256 -0.06644199788570404 -0.8748369812965393 0.4456529915332794 -0.005578000098466873 -0.8951879739761353
          0.34212300181388855 0.044165000319480896 -0.9386169910430908 0.6778939962387085 -0.08175700157880783 -0.7305999994277954
          0.49369001388549805 -0.04822300001978874 -0.8683000206947327 0.5600550174713135 -0.027692999690771103 0.8279929757118225
          -0.19221700727939606 0.06155100092291832 0.979420006275177 -0.13295699656009674 0.07217500358819962 0.9884899854660034
          -0.38459500670433044 0.12766699492931366 0.914214015007019 -0.7775170207023621 0.11372599750757217 0.6184930205345154
          -0.7834389805793762 0.13586199283599854 0.606436014175415 -0.774960994720459 0.16364000737667084 0.6104570031166077
          -0.8203250169754028 0.2539609968662262 0.5124160051345825 -0.7623909711837769 0.3095340132713318 0.5682849884033203
          -0.4918839931488037 0.1817930042743683 0.8514699935913086 -0.8529139757156372 0.24225400388240814 0.46244001388549805
          -0.5292519927024841 0.03941499814391136 0.8475490212440491 0.029368000105023384 -0.07764700055122375 0.9965479969978333
          0.8630130290985107 -0.24569299817085266 0.44141098856925964 0.9336280226707458 -0.24681800603866577 -0.2596519887447357
          0.9082549810409546 -0.13121800124645233 -0.3973099887371063 0.6432859897613525 -0.026673000305891037 -0.7651609778404236
          0.5839700102806091 -0.06794299930334091 -0.8089269995689392 -0.7565249800682068 0.08630800247192383 0.6482449769973755
          0.9840379953384399 -0.008743000216782093 -0.17774400115013123 0.8418809771537781 -0.06881000101566315 -0.5352579951286316
          0.7802919745445251 -0.033160001039505005 -0.6245359778404236 0.8181530237197876 0.0436520017683506 0.5733420252799988
          0.40118899941444397 0.038343001157045364 -0.9151920080184937 0.3333379924297333 0.15022000670433044 -0.9307630062103271
          -0.09030400216579437 0.061845000833272934 -0.9939919710159302 -0.07377299666404724 0.1789879947900772 -0.981082022190094
          0.15189099311828613 0.047968000173568726 -0.9872329831123352 0.25710099935531616 0.07794199883937836 -0.9632359743118286
          0.004222999792546034 0.1478320062160492 -0.9890030026435852 0.40657299757003784 0.025042999535799026 -0.9132750034332275
          0.560267984867096 -0.06033099815249443 -0.8261110186576843 0.5184670090675354 -0.017650999128818512 -0.854915976524353
          0.45897001028060913 0.01995299942791462 -0.8882269859313965 0.5313670039176941 0.008186000399291515 -0.8471019864082336
          0.6982790231704712 -0.10116799920797348 -0.7086399793624878 -0.0750259980559349 0.1271830052137375 0.9890379905700684
          -0.324631005525589 0.13011500239372253 0.936847984790802 -0.8953649997711182 0.12978999316692352 0.4259989857673645
          -0.8828799724578857 0.16611500084400177 0.43923699855804443 -0.8700019717216492 0.20137499272823334 0.4500510096549988
          -0.8759729862213135 0.48116400837898254 -0.03394300118088722 -0.9301890134811401 0.3576520085334778 0.08266100287437439
          -0.8939229846000671 0.2909789979457855 0.3409290015697479 -0.6362699866294861 0.1916089951992035 0.7472929954528809
          -0.822297990322113 0.3780669867992401 0.42531299591064453 -0.8319519758224487 0.21253900229930878 0.5125250220298767
          -0.40316298604011536 0.15363900363445282 0.9021390080451965 -0.28561198711395264 0.14765900373458862 0.9469019770622253
          -0.3113279938697815 0.14560699462890625 0.9390810132026672 -0.9181960225105286 0.2350279986858368 0.31887099146842957
          -0.9206389784812927 0.3074769973754883 0.2405869960784912 -0.5310019850730896 0.01103499997407198 0.8472989797592163
          -0.7411029934883118 0.06820999830961227 0.6679180264472961 0.1468999981880188 -0.10124500095844269 0.983955979347229
          -0.4344939887523651 -0.007714000064879656 0.9006419777870178 0.5572689771652222 -0.3166219890117645 0.7675949931144714
          0.9109500050544739 -0.31147199869155884 -0.27047199010849 0.804997980594635 -0.19184699654579163 -0.5614020228385925
          0.8248289823532104 -0.2579990029335022 -0.5030850172042847 0.4238550066947937 -0.07584899663925171 -0.9025480151176453
          0.22084000706672668 -0.029746999964118004 -0.9748560190200806 0.6546059846878052 -0.13040299713611603 -0.7446380257606506
          -0.3667280077934265 0.16336199641227722 -0.9158729910850525 -0.9025490283966064 0.11591000109910965 0.4146929979324341
          0.9067999720573425 -0.06792999804019928 -0.4160520136356354 0.9902729988098145 0.01980699971318245 0.1377200037240982
          0.9986569881439209 -0.006705999840050936 -0.05137199908494949 0.7927039861679077 -0.1696390062570572 -0.5855280160903931
          0.9764419794082642 -0.05185199901461601 -0.20945699512958527 0.7332620024681091 -0.07850799709558487 -0.6753990054130554
          0.5914450287818909 0.09791900217533112 0.8003780245780945 -0.8669959902763367 0.27325600385665894 -0.41671299934387207
          -0.9155439734458923 0.20183399319648743 -0.34791100025177 -0.9588080048561096 0.2271769940853119 -0.17051899433135986
          -0.984067976474762 0.1745930016040802 -0.03357100114226341 -0.8764740228652954 0.3137809932231903 -0.36515000462532043
          0.12030100077390671 0.19561700522899628 -0.9732739925384521 -0.6049789786338806 0.3843500018119812 -0.6973350048065186
          0.27695900201797485 0.13245299458503723 -0.951708972454071 0.3999359905719757 -0.04475399851799011 -0.9154499769210815
          0.39804500341415405 -0.12940700352191925 -0.9081929922103882 0.11273600161075592 -0.13147200644016266 -0.9848889708518982
          0.30406901240348816 0.030097000300884247 -0.9521750211715698 0.6871070265769958 -0.20311200618743896 -0.6975880265235901
          0.5758470296859741 -0.19472099840641022 -0.7940300107002258 0.655368983745575 -0.23109200596809387 -0.7190880179405212
          0.09228800237178802 0.13092400133609772 0.9870880246162415 -0.9205440282821655 0.12303899973630905 0.37075600028038025
          -0.9078620076179504 0.15364700555801392 0.39010199904441833 -0.9057790040969849 0.18359099328517914 0.38191500306129456
          -0.782243013381958 0.6168069839477539 -0.08743400126695633 -0.8090850114822388 0.47619500756263733 -0.3444119989871979
          -0.2984920144081116 0.4698120057582855 -0.8307710289955139 -0.5998460054397583 0.0896029993891716 0.7950829863548279
          -0.802623987197876 0.13810600340366364 0.5802770256996155 -0.8355010151863098 0.18136900663375854 0.5186939835548401
          -0.8562049865722656 0.4355410039424896 0.2778779864311218 -0.8378300070762634 0.35626500844955444 0.41366198658943176
          -0.9095249772071838 0.14488600194454193 0.38957899808883667 -0.8971710205078125 0.1897059977054596 0.39886799454689026
          -0.44192901253700256 0.017714999616146088 0.8968750238418579 -0.13557100296020508 0.1410360038280487 0.9806780219078064
          -0.5680189728736877 0.07206200063228607 0.8198549747467041 0.1558140069246292 0.1367029994726181 0.9782810211181641
          -0.5661609768867493 0.17692899703979492 0.8050829768180847 -0.15355299413204193 0.1845110058784485 0.9707610011100769
          0.22324499487876892 0.1646910011768341 0.9607489705085754 -0.7589700222015381 0.041078001260757446 0.6498289704322815
          -0.924642026424408 0.08976300060749054 0.3701080083847046 -0.33117398619651794 -0.0022219999227672815 0.9435669779777527
          0.02433300018310547 -0.03902500122785568 0.9989420175552368 -0.6984620094299316 0.022317999973893166 0.7152990102767944
          0.47996199131011963 -0.6557289958000183 0.5827999711036682 -0.34166398644447327 -0.10735300183296204 0.9336709976196289
          -0.07816500216722488 -0.05760499835014343 0.9952750205993652 0.9572049975395203 -0.2712540030479431 -0.10089199990034103
          0.758499026298523 -0.08629100024700165 -0.6459360122680664 0.7592229843139648 -0.1757649928331375 -0.6266469955444336
          0.16279299557209015 -0.005142000038176775 -0.9866470098495483 0.4108859896659851 -0.0332770012319088 -0.9110789895057678
          -0.47475001215934753 0.1360040009021759 -0.8695489764213562 -0.7983999848365784 0.16321000456809998 -0.5795860290527344
          0.5743290185928345 -0.07542499899864197 -0.8151429891586304 -0.984932005405426 0.0938199982047081 0.14527800679206848
          -0.9443659782409668 0.12345600128173828 0.30484598875045776 0.8007640242576599 0.030615000054240227 0.5981969833374023
          0.8224930167198181 -0.1639460027217865 -0.544634997844696 0.7272279858589172 -0.3834010064601898 -0.5693359971046448
          0.7393140196800232 -0.265747994184494 -0.6187019944190979 0.9959419965744019 0.012508999556303024 0.08912699669599533
          0.9719600081443787 -0.11964499950408936 -0.20243200659751892 0.8179579973220825 0.08657299727201462 0.5687270164489746
          0.12953199446201324 0.25015899538993835 -0.9595010280609131 -0.006186000071465969 0.33713299036026 -0.9414370059967041
          0.3198170065879822 -0.08182399719953537 -0.9439399838447571 0.15191400051116943 -0.09442999958992004 -0.9838730096817017
          0.3987720012664795 -0.24549299478530884 -0.8835809826850891 -0.016246000304818153 -0.15337100625038147 -0.9880350232124329
          -0.22877800464630127 -0.08816900104284286 -0.9694780111312866 -0.028449000790715218 -0.21862100064754486 -0.9753950238227844
          -0.39401501417160034 -0.16383600234985352 -0.9043840169906616 0.21586599946022034 0.15128600597381592 -0.964631974697113
          0.8276870250701904 -0.26432499289512634 -0.49504199624061584 0.7065250277519226 -0.18229100108146667 -0.6838070154190063
          0.3217419981956482 -0.170182004570961 -0.9314079880714417 -0.7884039878845215 0.5813050270080566 -0.20125499367713928
          -0.5580459833145142 -0.008085999637842178 0.8297709822654724 -0.7198349833488464 0.1809989959001541 0.6701329946517944
          -0.8713669776916504 0.2625940144062042 0.4144439995288849 -0.8704609870910645 0.0785060003399849 0.4859369993209839
          -0.8142129778862 0.33210501074790955 0.4761970043182373 -0.8836060166358948 0.04119500145316124 0.46641600131988525
          -0.9075809717178345 0.3104490041732788 0.28269898891448975 -0.9843779802322388 0.17334499955177307 0.030848000198602676
          -0.6073780059814453 0.09385400265455246 0.7888489961624146 -0.647720992565155 -0.04138299822807312 0.7607529759407043
          0.7087630033493042 0.1354209929704666 0.6923270225524902 -0.3500080108642578 -0.02442600019276142 0.9364280104637146
          0.8400459885597229 0.0703129991889 0.5379390120506287 0.32074400782585144 -0.25830700993537903 0.9112629890441895
          -0.9472950100898743 0.06470700353384018 0.31376001238822937 -0.8860459923744202 0.046532001346349716 0.4612570106983185
          -0.2628610134124756 0.005776999983936548 0.9648159742355347 -0.5987390279769897 0.019527999684214592 0.8007060289382935
          -0.900534987449646 0.056866999715566635 0.4310480058193207 -0.4802609980106354 -0.8075379729270935 -0.3423910140991211
          0.9178130030632019 -0.17880499362945557 -0.3544679880142212 -0.36142799258232117 -0.0030620000325143337 0.9323949813842773
          -0.8837950229644775 0.04777299985289574 0.4654279947280884 -0.1565690040588379 -0.07018200308084488 0.9851700067520142
          -0.22736099362373352 -0.019731000065803528 0.9736109972000122 0.8372120261192322 0.14152799546718597 -0.5282480120658875
          0.6081129908561707 -0.011177999898791313 -0.7937719821929932 0.10367400199174881 0.06423000246286392 -0.9925349950790405
          -0.5902900099754333 0.17671799659729004 -0.7876089811325073 0.3754569888114929 0.07613900303840637 -0.9237070083618164
          -0.9922170042991638 0.1117589995265007 0.05491400137543678 0.7323510050773621 -0.6133350133895874 -0.29577401280403137
          0.5081700086593628 -0.8459089994430542 -0.16186699271202087 0.7954390048980713 -0.5437279939651489 -0.2676509916782379
          0.845317006111145 -0.36980900168418884 0.3855910003185272 -0.6713359951972961 0.6712170243263245 -0.314285010099411
          -0.13548000156879425 0.42498698830604553 -0.8950039744377136 0.49375200271606445 0.018396999686956406 -0.8694080114364624
          0.1979690045118332 -0.47894901037216187 -0.8552290201187134 0.6255030035972595 -0.1507280021905899 -0.7655240297317505
          -0.1433430016040802 -0.17962700128555298 -0.973235011100769 -0.4712510108947754 -0.0746610015630722 -0.878832995891571
          -0.3178269863128662 -0.3829140067100525 -0.8673890233039856 -0.3519810140132904 -0.28471899032592773 -0.8916530013084412
          -0.39610999822616577 -0.1344970017671585 -0.9082990288734436 -0.5782290101051331 -0.16824300587177277 -0.7983390092849731
          0.15872299671173096 0.19110499322414398 -0.9686520099639893 -0.09812100231647491 0.35196998715400696 -0.9308540225028992
          0.8511059880256653 -0.20234499871730804 -0.48443299531936646 0.9248610138893127 -0.34852099418640137 -0.15220299363136292
          0.9433370232582092 -0.2778190076351166 -0.1814740002155304 0.6172080039978027 -0.14165399968624115 -0.7739440202713013
          0.06302099674940109 -0.07530699670314789 -0.9951670169830322 -0.29488998651504517 -0.01925699971616268 -0.9553369879722595
          -0.4041909873485565 -0.06415800005197525 -0.9124220013618469 -0.35648098587989807 -0.12064100056886673 -0.9264810085296631
          -0.6057469844818115 -0.0338129997253418 0.7949380278587341 -0.6688650250434875 0.07524199783802032 0.7395660281181335
          -0.6988530158996582 -0.3648419976234436 0.615218997001648 -0.6701589822769165 -0.14706799387931824 0.7275009751319885
          -0.7270410060882568 -0.1787949949502945 0.6629059910774231 -0.8080940246582031 0.1887730062007904 0.5579860210418701
          -0.8136749863624573 0.4204629957675934 0.4014270007610321 -0.8287929892539978 0.36779698729515076 0.4216960072517395
          -0.7516499757766724 0.046254001557826996 0.6579390168190002 -0.8155940175056458 -0.21300500631332397 0.537992000579834
          -0.6063159704208374 -0.028512999415397644 -0.794713020324707 -0.9541500210762024 0.2551630139350891 0.15648899972438812
          -0.5946710109710693 -0.7559159994125366 -0.27378299832344055 -0.3279559910297394 -0.17477600276470184 -0.9283850193023682
          -0.6266639828681946 -0.008793000131845474 0.7792400121688843 -0.5017910003662109 -0.07507599890232086 0.8617249727249146
          -0.29505500197410583 -0.6014710068702698 0.7424110174179077 -0.17506399750709534 -0.6355469822883606 0.7519519925117493
          0.2714430093765259 -0.9029849767684937 0.3330709934234619 -0.4750730097293854 -0.006881999783217907 0.8799189925193787
          -0.8335869908332825 0.06645099818706512 0.5483769774436951 -0.9744489789009094 0.1659409999847412 -0.15136800706386566
          -0.9455940127372742 0.006018000189214945 0.32529300451278687 -0.7936319708824158 -0.48228299617767334 -0.37088000774383545
          0.42107999324798584 -0.3435499966144562 -0.839443027973175 0.265749990940094 -0.2584559917449951 -0.9287499785423279
          0.35176101326942444 0.002177000045776367 -0.9360870122909546 0.5897409915924072 0.14478699862957 -0.7945079803466797
          0.8516520261764526 0.09301300346851349 -0.5157880187034607 -0.6820229887962341 -0.2765139937400818 0.6770409941673279
          -0.1220259964466095 -0.2840909957885742 0.951000988483429 -0.9574620127677917 -0.015651000663638115 0.28813499212265015
          -0.2045239955186844 -0.07380600273609161 0.9760749936103821 -0.33475199341773987 -0.03840300068259239 0.941523015499115
          0.5279880166053772 0.122529998421669 -0.840366005897522 0.5724589824676514 0.10241799801588058 -0.8135120272636414
          0.141525000333786 0.13462699949741364 -0.9807379841804504 -0.5278229713439941 0.18279600143432617 -0.8294510245323181
          0.11627399921417236 -0.9909719824790955 0.06674399971961975 0.5460259914398193 -0.802960991859436 0.238973006606102
          0.8993520140647888 -0.43089601397514343 -0.07413200289011002 -0.816627025604248 0.41808900237083435 0.3978959918022156
          -0.6436759829521179 0.565625011920929 -0.5155100226402283 0.5215100049972534 -0.018875999376177788 -0.8530359864234924
          0.6919789910316467 -0.5383449792861938 -0.4809879958629608 0.5885050296783447 -0.11988600343465805 -0.7995550036430359
          -0.6984590291976929 -0.09850499778985977 -0.7088379859924316 -0.5853520035743713 -0.43261098861694336 -0.6857200264930725
          -0.9058910012245178 -0.3847920000553131 -0.1769080013036728 -0.25865599513053894 0.43845701217651367 -0.8607280254364014
          0.6897709965705872 -0.1682790070772171 -0.704200029373169 0.8920350074768066 -0.2502639889717102 -0.3763520121574402
          0.8749189972877502 -0.3589780032634735 0.3250420093536377 0.8407660126686096 -0.391635000705719 0.3738110065460205
          0.941178023815155 -0.3375140130519867 -0.01636200025677681 0.8384979963302612 -0.39792001247406006 0.3722650110721588
          0.6076020002365112 -0.10412999987602234 -0.7873860001564026 0.01515199989080429 -0.009290000423789024 -0.9998419880867004
          -0.8212130069732666 0.09272199869155884 -0.5630379915237427 -0.9428439736366272 -0.009549000300467014 -0.33309701085090637
          -0.8886590003967285 0.05149099975824356 -0.45566800236701965 -0.8761640191078186 -0.0768129974603653 -0.4758540093898773
          -0.7470579743385315 -0.07034800201654434 0.6610270142555237 -0.8917980194091797 -0.13007999956607819 0.4333310127258301
          -0.692795991897583 -0.6910679936408997 0.20605599880218506 -0.9822679758071899 -0.17791500687599182 0.059133000671863556
          -0.8320029973983765 -0.5444419980049133 0.10655800253152847 -0.4148400127887726 -0.04201599955558777 0.9089239835739136
          0.8308529853820801 -0.5540379881858826 0.05220400169491768 -0.3698590099811554 -0.1526080071926117 0.9164689779281616
          -0.6182000041007996 -0.019146999344229698 0.7857879996299744 0.41470199823379517 -0.4326930046081543 0.8004990220069885
          0.973954975605011 -0.022262999787926674 0.2256460040807724 -0.7036229968070984 0.38117700815200806 0.5996819734573364
          -0.9401159882545471 0.12815900146961212 -0.3158450126647949 -0.8813959956169128 -0.09864900261163712 0.4619629979133606
          -0.8962739706039429 -0.05395999923348427 0.44020500779151917 -0.9134659767150879 -0.2517760097980499 0.3196679949760437
          0.2368050068616867 -0.5474230051040649 -0.8026530146598816 -0.4022260010242462 -0.8059769868850708 -0.4343000054359436
          0.8988059759140015 -0.2630630135536194 -0.3506369888782501 0.6886169910430908 -0.12360099703073502 -0.7145140171051025
          0.7639449834823608 -0.500374972820282 -0.4074459969997406 0.4798029959201813 -0.01348000019788742 -0.8772730231285095
          0.4278370141983032 0.14664599299430847 -0.8918799757957458 0.3692219853401184 0.13034699857234955 -0.9201549887657166
          0.6083210110664368 -0.06744799762964249 -0.7908200025558472 0.8141049742698669 -0.05286400020122528 -0.5783069729804993
          0.6921529769897461 -0.007912999950349331 -0.7217069864273071 -0.8924649953842163 -0.30899301171302795 0.32867899537086487
          -0.49755001068115234 -0.5847569704055786 0.6407049894332886 -0.4439859986305237 -0.4761410057544708 0.7590559720993042
          -0.43985500931739807 -0.12560099363327026 0.8892419934272766 -0.5378289818763733 -0.08365599811077118 0.8388929963111877
          0.948468029499054 0.005617999937385321 0.3168239891529083 0.4433540105819702 -0.027608999982476234 -0.895920991897583
          -0.17003099620342255 0.013445000164210796 -0.9853469729423523 0.8530070185661316 -0.47058001160621643 0.2256859987974167
          -0.7321529984474182 0.40716201066970825 0.5460500121116638 -0.33904001116752625 0.24311299622058868 0.9088169932365417
          -0.7514610290527344 0.54755699634552 0.3680860102176666 0.7470660209655762 -0.3403170108795166 -0.5710319876670837
          0.28025299310684204 0.00899800006300211 -0.959883987903595 -0.988349974155426 -0.05737200006842613 0.14096899330615997
          -0.6353039741516113 0.575918972492218 -0.5144960284233093 0.9101970195770264 -0.23129799962043762 -0.3435730040073395
          0.08263000100851059 -0.2666980028152466 0.9602310061454773 0.13567499816417694 -0.390855997800827 0.9103969931602478
          0.7077839970588684 -0.3427650034427643 0.6176999807357788 0.9661290049552917 -0.22222900390625 0.13118399679660797
          0.9612560272216797 0.0652410015463829 -0.26782599091529846 0.42399799823760986 0.1486310064792633 -0.8933839797973633
          -0.8965979814529419 0.16054600477218628 -0.4127199947834015 -0.3629849851131439 0.33013099431991577 -0.8713520169258118
          -0.9747459888458252 0.09836799651384354 0.20048299431800842 -0.9930499792098999 0.09398800134658813 0.0708409994840622
          -0.9146620035171509 0.06074199825525284 0.39963001012802124 -0.8418149948120117 -0.039889998733997345 0.5382900238037109
          -0.7195690274238586 -0.08702199906110764 0.6889470219612122 -0.8179020285606384 0.05389200150966644 0.5728279948234558
          -0.9244149923324585 -0.019176999107003212 0.38090500235557556 -0.003845999948680401 0.2761619985103607 0.9611030220985413
          0.9562519788742065 -0.2918280065059662 -0.020438000559806824 0.8322939872741699 -0.5225840210914612 -0.18491299450397491
          -0.549793004989624 -0.09607400000095367 0.8297569751739502 0.9747329950332642 0.01680699922144413 0.22273899614810944
          -0.9589470028877258 0.031495001167058945 -0.2818320095539093 -0.6977090239524841 -0.018378999084234238 0.7161449790000916
          -0.9343680143356323 0.04457499831914902 0.3535110056400299 -0.7293919920921326 -0.6367759704589844 -0.2500059902667999
          -0.8633909821510315 -0.5026059746742249 -0.04407599940896034 -0.6568760275840759 -0.27239200472831726 0.7030770182609558
          -0.528872013092041 -0.026744000613689423 0.8482800126075745 -0.6522610187530518 -0.1276410073041916 0.7471699714660645
          -0.6469169855117798 -0.565850019454956 0.5111870169639587 0.24804100394248962 -0.9684309959411621 0.024836000055074692
          0.9751139879226685 -0.11822500079870224 -0.18755100667476654 0.8793190121650696 -0.0032889998983591795 -0.4762220084667206
          0.6147540211677551 0.05430600047111511 -0.7868469953536987 0.9024099707603455 -0.26149600744247437 0.34245601296424866
          0.7211959958076477 -0.6192520260810852 0.3104879856109619 0.375095009803772 0.1767439991235733 -0.9099810123443604
          0.5122249722480774 -0.10798200219869614 -0.8520359992980957 0.501384973526001 -0.21564100682735443 -0.8379219770431519
          0.5467240214347839 -0.2423039972782135 -0.8014870285987854 0.673583984375 -0.25293800234794617 -0.6944829821586609
          0.6235700249671936 -0.17042100429534912 -0.762965977191925 0.4816969931125641 -0.100040003657341 -0.8706089854240417
          -0.6472749710083008 -0.7622309923171997 -0.0061530000530183315 -0.455361008644104 -0.8608869910240173 0.2269809991121292
          -0.5713210105895996 -0.17687100172042847 0.80144202709198 -0.5095900297164917 -0.8212699890136719 0.25658199191093445
          -0.722540020942688 -0.3891359865665436 0.5714100003242493 0.43385499715805054 -0.0818680003285408 -0.897255003452301
          0.32751399278640747 -0.06836800277233124 -0.9423689842224121 -0.9213640093803406 -0.1143990010023117 -0.37148600816726685
          -0.129611998796463 -0.09978099912405014 -0.9865319728851318 -0.47358399629592896 0.2990550100803375 0.828423023223877
          -0.7939550280570984 0.5565760135650635 0.24465900659561157 0.36269500851631165 0.5920050144195557 0.7197089791297913
          0.8868529796600342 0.2020850032567978 0.4155159890651703 0.6397190093994141 -0.4706610143184662 -0.607649028301239
          -0.3230060040950775 0.18577800691127777 -0.9279839992523193 0.3076229989528656 -0.21929900348186493 -0.9258919954299927
          -0.8843600153923035 0.42226898670196533 -0.19898700714111328 -0.38101300597190857 -0.28930899500846863 0.8781399726867676
          0.9188290238380432 -0.017125999554991722 0.3942849934101105 0.018758000805974007 -0.2648339867591858 0.9641119837760925
          0.3464779853820801 -0.0768510028719902 0.9349049925804138 0.9820520281791687 0.044557999819517136 0.18327000737190247
          0.5511199831962585 0.47625499963760376 -0.6851630210876465 0.8915659785270691 0.3814910054206848 -0.24408100545406342
          0.9764209985733032 0.16479100286960602 0.13944700360298157 0.08907599747180939 0.5123879909515381 -0.8541219830513
          -0.37214601039886475 0.5943740010261536 -0.7128999829292297 -0.7250990271568298 0.07554499804973602 0.6844879984855652
          -0.8838319778442383 0.4596270024776459 0.0870869979262352 -0.7432770133018494 0.5665540099143982 -0.3557470142841339
          -0.74788898229599 -0.01819399930536747 0.6635739803314209 0.7571099996566772 0.10545700043439865 0.6447190046310425
          0.06509000062942505 0.3197770118713379 0.9452540278434753 0.8237180113792419 -0.4422290027141571 -0.354856014251709
          0.8631219863891602 -0.4747219979763031 -0.17222100496292114 0.6825559735298157 -0.7085360288619995 -0.17914600670337677
          0.4528209865093231 -0.8481990098953247 -0.27479299902915955 -0.9275839924812317 -0.16132499277591705 0.33699101209640503
          -0.946977972984314 -0.054051000624895096 0.3167180120944977 -0.9516069889068604 0.01064900029450655 0.3071320056915283
          -0.9424039721488953 -0.010811000131070614 0.3343009948730469 -0.17694300413131714 -0.524412989616394 -0.8328760266304016