<?xml version="1.0"?>
<VTKFile type="PolyData" version="0.1" byte_order="LittleEndian" header_type="UInt32" compressor="vtkZLibDataCompressor">
  <PolyData>
    <Piece NumberOfPoints="2542" NumberOfVerts="0" NumberOfLines="0" NumberOfStrips="0" NumberOfPolys="5080">
      <PointData Normals="Normals">
        <DataArray type="Float32" Name="Normals" NumberOfComponents="3" format="ascii" RangeMin="0.9999992523268386" RangeMax="1.0000007260711297">
          0.8197649717330933 0.46978500485420227 0.32754799723625183 0.7970849871635437 0.4250650107860565 0.42892399430274963
          0.6790800094604492 0.529695987701416 0.508204996585846 0.7001230120658875 0.6128190159797668 0.366443008184433
          0.8157320022583008 0.46438100934028625 0.34486299753189087 0.7205430269241333 0.5642070174217224 0.4030979871749878
          0.8480340242385864 0.4850099980831146 0.21354900300502777 0.7034500241279602 0.5859789848327637 0.4022270143032074
          0.5274739861488342 0.6709449887275696 0.5211560130119324 0.5136150121688843 0.5647680163383484 0.6459389925003052
          0.6747599840164185 0.5431110262870789 0.4997290074825287 0.6786749958992004 0.6103529930114746 0.40849700570106506
          0.34839698672294617 0.540494978427887 0.7658219933509827 0.5134350061416626 0.5393649935722351 0.6674349904060364
          0.6210860013961792 0.4772360026836395 0.6216890215873718 0.7695339918136597 0.5728330016136169 0.2822760045528412
          0.6275249719619751 0.6330419778823853 0.4532870054244995 0.7295979857444763 0.5456010103225708 0.41231799125671387
          0.45660701394081116 0.678650975227356 0.5752769708633423 0.5254790186882019 0.6523380279541016 0.5461940169334412
          0.5716090202331543 0.6063539981842041 0.55281001329422 0.7328979969024658 0.5749629735946655 0.3637009859085083
          0.5526210069656372 0.6862829923629761 0.47289198637008667 0.3409329950809479 0.6887400150299072 0.6398450136184692
          0.7581350207328796 0.587332010269165 0.2833229899406433 0.8243920207023621 0.4419330060482025 0.35365599393844604
          0.6322000026702881 0.6849219799041748 0.3622229993343353 0.2272219955921173 0.6353679895401001 0.7380229830741882
          0.1317330002784729 0.6939679980278015 0.7078520059585571 0.03852400183677673 0.5612300038337708 0.8267629742622375
          0.3919770121574402 0.6114699840545654 0.6873570084571838 0.4275420010089874 0.44994300603866577 0.7840660214424133
          0.24129599332809448 0.511447012424469 0.824741005897522 -0.011094000190496445 0.4967629909515381 0.8678150177001953
          0.6322479844093323 0.3102869987487793 0.7099180221557617 0.42498499155044556 0.28389400243759155 0.859529972076416
          0.5872970223426819 0.6315829753875732 0.506147027015686 0.7456009984016418 0.5745139718055725 0.33765798807144165
          0.2925190031528473 0.6416469812393188 0.7090290188789368 0.7116349935531616 0.44873398542404175 0.5405679941177368
          0.2677670121192932 0.6258090138435364 0.7325739860534668 0.510791003704071 0.6341890096664429 0.5804280042648315
          0.5044400095939636 0.7086970210075378 0.4932439923286438 0.3130120038986206 0.7565330266952515 0.5741789937019348
          0.22214199602603912 0.6789699792861938 0.6997519731521606 0.6848310232162476 0.5491799712181091 0.47896599769592285
          0.7185149788856506 0.5786949992179871 0.3858090043067932 0.5769370198249817 0.773838996887207 0.26137399673461914
          0.4698770046234131 0.8100129961967468 0.3508470058441162 0.43867701292037964 0.5908129811286926 0.6771280169487
          0.5552189946174622 0.5354980230331421 0.6363750100135803 0.21463799476623535 0.7555800080299377 0.618893027305603
          -0.0009270000155083835 0.6138100028038025 0.7894530296325684 -0.04338499903678894 0.6991050243377686 0.7137020230293274
          0.10750599950551987 0.7868819832801819 0.6076670289039612 -0.24008600413799286 0.50034099817276 0.8318759799003601
          -0.2507849931716919 0.49985599517822266 0.829006016254425 -0.2873919904232025 0.5758780241012573 0.7653560042381287
          -0.0024790000170469284 0.6262440085411072 0.7796239852905273 0.2220650017261505 0.3337689936161041 0.9161249995231628
          0.12688499689102173 0.4776810109615326 0.8693220019340515 -0.03504899889230728 0.3049820065498352 0.9517130255699158
          -0.3084779977798462 0.3397020101547241 0.8885070085525513 0.5544959902763367 0.29094499349594116 0.779670000076294
          0.40084201097488403 0.1737930029630661 0.899511992931366 0.07307200133800507 0.20633700489997864 0.9757490158081055
          0.16433000564575195 0.640504002571106 0.7501670122146606 0.35109999775886536 0.7446060180664062 0.5677059888839722
          0.5503000020980835 0.6594319939613342 0.5121709704399109 0.6114130020141602 0.5688269734382629 0.5501000285148621
          0.5433160066604614 0.4770990014076233 0.6907849907875061 0.3077239990234375 0.6605749726295471 0.6847959756851196
          0.1833209991455078 0.732886016368866 0.6551880240440369 0.254379004240036 0.854898989200592 0.45214998722076416
          0.5726029872894287 0.5485529899597168 0.6092740297317505 0.4115709960460663 0.6753699779510498 0.6119509935379028
          0.6104699969291687 0.7779120206832886 0.14892999827861786 0.5633230209350586 0.7530180215835571 0.3400450050830841
          0.45026201009750366 0.6827539801597595 0.575423002243042 0.3641270101070404 0.8764129877090454 0.31513699889183044
          0.3863089978694916 0.9045640230178833 0.18036100268363953 0.1877799928188324 0.7038009762763977 0.6851289868354797
          0.06729099899530411 0.7174249887466431 0.6933789849281311 -0.1977110058069229 0.6493880152702332 0.7343069911003113
          -0.10143599659204483 0.6950420141220093 0.7117769718170166 0.09003899991512299 0.7882519960403442 0.6087300181388855
          -0.10927700251340866 0.8087739944458008 0.577879011631012 -0.25358501076698303 0.6964250206947327 0.6713330149650574
          -0.44248101115226746 0.4485029876232147 0.7765660285949707 -0.5687299966812134 0.5753669738769531 0.5877919793128967
          -0.34803199768066406 0.6528750061988831 0.6727759838104248 -0.06165499985218048 0.7414090037345886 0.6682149767875671
          -0.47698500752449036 0.539717972278595 0.6936780214309692 -0.49115100502967834 0.3329490125179291 0.8049319982528687
          -0.28561198711395264 0.30564001202583313 0.9083009958267212 0.3911440074443817 0.2809079885482788 0.8764110207557678
          0.2739909887313843 0.16639000177383423 0.9472290277481079 -0.19864800572395325 0.25923699140548706 0.9451640248298645
          0.14015600085258484 0.12808699905872345 0.9818099737167358 0.17553900182247162 0.09852699935436249 0.9795299768447876
          0.05598299950361252 0.7709929943084717 0.6343780159950256 0.4162609875202179 0.651881992816925 0.6338580250740051
          0.29166001081466675 0.43761301040649414 0.8505470156669617 0.023601999506354332 0.8842629790306091 0.46639201045036316
          0.08465699851512909 0.9505770206451416 0.2987239956855774 0.33389100432395935 0.6794229745864868 0.6533769965171814
          0.4765470027923584 0.878525972366333 0.03310199826955795 0.39584600925445557 0.9020320177078247 -0.17217199504375458
          0.43382200598716736 0.8462820053100586 0.3092010021209717 0.3987860083580017 0.8012139797210693 0.44612398743629456
          0.24241000413894653 0.7589229941368103 0.6043779850006104 0.15443100035190582 0.8721309900283813 0.464260995388031
          0.22820499539375305 0.9677000045776367 0.10714399814605713 0.35957100987434387 0.9075599908828735 -0.21689699590206146
          0.14830799400806427 0.8675540089607239 0.4747160077095032 -0.011265000328421593 0.8549200296401978 0.518638014793396
          0.2793950140476227 0.8315600156784058 0.4800480008125305 -0.1159140020608902 0.8325480222702026 0.5416899919509888
          -0.10820800065994263 0.8200690150260925 0.5619419813156128 -0.09309700131416321 0.8331590294837952 0.5451419949531555
          0.001686000032350421 0.7996559739112854 0.6004559993743896 -0.3405269980430603 0.7612820267677307 0.5518069863319397
          -0.0024109999649226665 0.5800399780273438 0.8145840167999268 -0.3426569998264313 0.619396984577179 0.7063530087471008
          -0.6079229712486267 0.4433070123195648 0.6587169766426086 -0.584197998046875 0.41054201126098633 0.7001190185546875
          -0.5232009887695312 0.6801390051841736 0.5134900212287903 -0.7071710228919983 0.6233360171318054 0.3337079882621765
          -0.7585089802742004 0.47332900762557983 0.44791001081466675 -0.24932700395584106 0.7837100028991699 0.5688890218734741
          -0.6403359770774841 0.45263800024986267 0.6205549836158752 -0.39131298661231995 0.2901949882507324 0.8733050227165222
          -0.5349569916725159 0.3402490019798279 0.7733380198478699 -0.46746599674224854 0.3227519989013672 0.8229860067367554
          0.3371660113334656 0.1674650013446808 0.9264310002326965 0.22220799326896667 0.19525699317455292 0.9552479982376099
          0.1349869966506958 0.26219600439071655 0.9555270075798035 0.10738799721002579 0.16299200057983398 0.9807659983634949
          -0.24580100178718567 0.2201330065727234 0.9439929723739624 -0.38509801030158997 0.28624001145362854 0.8773630261421204
          0.08937200158834457 0.1730930060148239 0.9808419942855835 0.1497199982404709 0.14739100635051727 0.9776809811592102
          0.40108901262283325 0.08027300238609314 0.9125149846076965 -0.01360199972987175 0.6948390007019043 0.7190369963645935
          0.17226099967956543 0.6876170039176941 0.7053430080413818 0.09127400070428848 0.47375598549842834 0.8759139776229858
          -0.11609400063753128 0.9192789793014526 0.3760960102081299 -0.06495500355958939 0.9559590220451355 0.2862209975719452
          -0.21346600353717804 0.9364629983901978 0.27833399176597595 -0.2944889962673187 0.8861029744148254 0.3579089939594269
          0.22179999947547913 0.9750279784202576 -0.01115300040692091 0.25813600420951843 0.93299400806427 -0.250775009393692
          0.27931299805641174 0.8460040092468262 -0.45416098833084106 0.18528099358081818 0.9351500272750854 0.3019370138645172
          0.35699498653411865 0.8985559940338135 0.2552480101585388 0.388033002614975 0.8068820238113403 0.445389986038208
          0.15649299323558807 0.816448986530304 0.5558069944381714 -0.22595499455928802 0.8236730098724365 0.5201039910316467
          -0.34848299622535706 0.9173150062561035 0.1925950050354004 -0.05516799911856651 0.9951120018959045 0.08190099895000458
          0.19522400200366974 0.9807400107383728 0.005981000140309334 -0.051516998559236526 0.9883319735527039 0.14333899319171906
          0.41238200664520264 0.7114670276641846 -0.5689949989318848 0.2036619931459427 0.9506530165672302 -0.23405300080776215
          0.01627499982714653 0.9998660087585449 0.001883000019006431 0.043469998985528946 0.8974220156669617 0.43902701139450073
          0.22297899425029755 0.9344679713249207 0.2775779962539673 0.11078999936580658 0.9527119994163513 0.2829580008983612
          -0.053307998925447464 0.8689500093460083 0.49202099442481995 0.06659000366926193 0.9372299909591675 0.34229400753974915
          0.05799200013279915 0.9295340180397034 0.36414700746536255 -0.006924999877810478 0.8619809746742249 0.5068939924240112
          0.13276199996471405 0.75661700963974 0.6402379870414734 -0.02123199962079525 0.7732759714126587 0.6337140202522278
          0.08243700116872787 0.7899289727210999 0.6076319813728333 -0.3036220073699951 0.7369120121002197 0.6039649844169617
          0.22498899698257446 0.7639359831809998 0.6047980189323425 0.11153600364923477 0.8775219917297363 0.46638399362564087
          0.18333600461483002 0.702567994594574 0.6875939965248108 0.8126279711723328 0.25024300813674927 0.5263199806213379
          -0.028392000123858452 0.41055500507354736 0.9113940000534058 0.46958601474761963 0.4181939959526062 0.7775620222091675
          -0.30788201093673706 0.5436930060386658 0.7807729840278625 -0.7110170125961304 0.4520379900932312 0.5386239886283875
          -0.4973689913749695 0.8207880258560181 0.2809459865093231 -0.7834259867668152 0.5902339816093445 0.19459599256515503
          -0.597690999507904 0.7850810289382935 0.16252100467681885 -0.8148379921913147 0.5028849840164185 0.288347989320755
          -0.7417259812355042 0.5774610042572021 0.3411479890346527 -0.715939998626709 0.46781399846076965 0.5182480216026306
          -0.7123079895973206 0.33949100971221924 0.6142989993095398 -0.5957559943199158 0.29273200035095215 0.7479190230369568
          -0.5259050130844116 0.2705869972705841 0.8063539862632751 0.2852959930896759 0.22898900508880615 0.9306830167770386
          0.1883929967880249 0.19948600232601166 0.9616199731826782 0.2568109929561615 0.2246609926223755 0.9399870038032532
          0.421644002199173 0.1546510010957718 0.8934760093688965 0.2763350009918213 0.1813659965991974 0.943792998790741
          0.21921099722385406 0.1759909987449646 0.9596740007400513 0.09633799642324448 0.33275899291038513 0.938077986240387
          0.2365729957818985 0.15441200137138367 0.9592649936676025 0.07452099770307541 0.1964530050754547 0.9776769876480103
          -0.5153229832649231 0.18875600397586823 0.8359509706497192 -0.3291949927806854 0.2233860045671463 0.9174579977989197
          -0.3384590148925781 0.9269790053367615 0.16172699630260468 0.029333999380469322 0.9513109922409058 -0.3068329989910126
          0.05295199900865555 0.8281660079956055 -0.5579760074615479 0.3906469941139221 0.9193649888038635 -0.04650700092315674
          0.4079659879207611 0.908240020275116 0.09307699650526047 0.2912040054798126 0.9344000220298767 0.20517699420452118
          0.23879800736904144 0.9685680270195007 0.06965799629688263 0.334075003862381 0.8947299718856812 0.29639801383018494
          0.24336299300193787 0.9012759923934937 0.3584359884262085 0.32349300384521484 0.769806981086731 0.5502259731292725
          0.13747699558734894 0.8540329933166504 0.5017240047454834 -0.08535899966955185 0.7798579931259155 0.6201090216636658
          -0.5413240194320679 0.7212839722633362 0.4321080148220062 -0.45407599210739136 0.7070729732513428 0.5420899987220764
          -0.6076070070266724 0.7237139940261841 0.3271870017051697 -0.38599199056625366 0.9137030243873596 -0.12711100280284882
          -0.07315199822187424 0.978896975517273 -0.19081099331378937 0.4756680130958557 0.5869799852371216 -0.6551290154457092
          0.42739298939704895 0.18205800652503967 -0.885545015335083 0.36262598633766174 0.7866479754447937 -0.49968698620796204
          -0.049984999001026154 0.9827849864959717 -0.17786100506782532 -0.1758739948272705 0.984345018863678 0.011526999995112419
          0.2924340069293976 0.95620197057724 -0.012695999816060066 0.19377300143241882 0.9806680083274841 -0.027255000546574593
          0.18745900690555573 0.9816610217094421 0.03465599939227104 0.11875099688768387 0.9410420060157776 0.31676098704338074
          0.21892699599266052 0.9628000259399414 0.15839000046253204 0.28697898983955383 0.8877789974212646 0.3598479926586151
          0.403903990983963 0.6308010220527649 0.6625350117683411 0.17966000735759735 0.6337820291519165 0.7523580193519592
          0.38454899191856384 0.5869050025939941 0.7125059962272644 0.34364598989486694 0.6131240129470825 0.7113270163536072
          0.39737099409103394 0.5845239758491516 0.7074090242385864 0.07025399804115295 0.6868079900741577 0.7234349846839905
          0.05890100076794624 0.6070230007171631 0.7924990057945251 -0.16932199895381927 0.6399809718132019 0.7495030164718628
          0.4949429929256439 0.6199010014533997 0.6088950037956238 0.4215550124645233 0.7288190126419067 0.5395510196685791
          0.9440699815750122 0.1355849951505661 0.3005810081958771 -0.14447499811649323 0.34755200147628784 0.9264630079269409
          0.16284500062465668 0.3219679892063141 0.932640016078949 -0.11112599819898605 0.378262996673584 0.9190040230751038
          -0.8351460099220276 0.5350480079650879 0.12749500572681427 -0.6576780080795288 0.7526689767837524 0.030804000794887543
          -0.7490209937095642 0.6625120043754578 -0.006696000229567289 -0.8347309827804565 0.5502110123634338 0.02217100001871586
          -0.7494699954986572 0.5454000234603882 0.3752790093421936 -0.8153210282325745 0.5390959978103638 0.21125100553035736
          -0.7852680087089539 0.618494987487793 0.02859400026500225 -0.8489130139350891 0.41514599323272705 0.3271079957485199
          -0.8527320027351379 0.33319899439811707 0.40227800607681274 -0.7907869815826416 0.3351120054721832 0.5122079849243164
          -0.7593089938163757 0.26179298758506775 0.5957459807395935 -0.8593860268592834 0.24982400238513947 0.4461440145969391
          -0.8757920265197754 0.26832300424575806 0.40123701095581055 -0.7105559706687927 0.19608700275421143 0.6757659912109375
          -0.6602240204811096 0.15648199617862701 0.7345860004425049 -0.5851500034332275 0.199413001537323 0.7860249876976013
          0.37996500730514526 0.13666200637817383 0.9148499965667725 0.21109600365161896 0.2172050029039383 0.9530270099639893
          0.24511699378490448 0.16512200236320496 0.9553290009498596 0.07498600333929062 0.21274499595165253 0.9742259979248047
          0.0913579985499382 0.09550800174474716 0.9912279844284058 0.053651999682188034 0.14411699771881104 0.9881049990653992
          0.32933899760246277 0.17868100106716156 0.9271510243415833 0.0983470007777214 0.2371090054512024 0.9664919972419739
          0.14539800584316254 0.17800499498844147 0.9732279777526855 0.374116986989975 0.13336700201034546 0.9177410006523132
          0.013446999713778496 0.20859600603580475 0.9779090285301208 -0.12236899882555008 0.2342810034751892 0.9644370079040527
          -0.5744709968566895 0.17847999930381775 0.7988290190696716 -0.6857560276985168 0.08389700204133987 0.7229800224304199
          -0.6052960157394409 0.13411100208759308 0.7846220135688782 -0.5012760162353516 0.21963199973106384 0.8369500041007996
          -0.2450529932975769 0.24650900065898895 0.9376469850540161 -0.4622890055179596 0.8866479992866516 0.01202400028705597
          0.3556399941444397 0.7515770196914673 -0.5555649995803833 -0.20210100710391998 0.4465380012989044 -0.8716409802436829
          0.43953800201416016 0.8976590037345886 0.031849998980760574 0.4691619873046875 0.8751099705696106 -0.11861500144004822
          0.42898499965667725 0.8201460242271423 -0.37859299778938293 0.3140980005264282 0.9306240081787109 -0.1878339946269989
          0.17934800684452057 0.9823079705238342 0.05389599874615669 0.001218999968841672 0.9861860275268555 0.1656389981508255
          0.04063500091433525 0.9360700249671936 0.3494589924812317 -0.12249399721622467 0.9492660164833069 0.2896369993686676
          -0.007953000254929066 0.9325240254402161 0.3610210120677948 -0.20684200525283813 0.8885449767112732 0.40951699018478394
          -0.3971709907054901 0.7347739934921265 0.549875020980835 -0.5431920289993286 0.5767220258712769 0.6101930141448975
          -0.3063560128211975 0.9282320141792297 0.21102400124073029 -0.4448379874229431 0.5683540105819702 0.6921659708023071
          -0.6188439726829529 0.7712110280990601 -0.14921799302101135 0.5666490197181702 0.7209309935569763 -0.3989590108394623
          0.5477619767189026 0.3306559920310974 -0.7685199975967407 0.18137599527835846 0.8448230028152466 -0.5033649802207947
          0.3226720094680786 0.6649529933929443 -0.6735870242118835 0.2587999999523163 0.4235599935054779 -0.8681120276451111
          0.6784150004386902 -0.17737899720668793 -0.712943971157074 -0.2619040012359619 0.15657299757003784 -0.9523079991340637
          0.7754380106925964 -0.03993599861860275 -0.6301590204238892 -0.37541699409484863 0.9053559899330139 -0.1984730064868927
          0.23589900135993958 0.9014610052108765 -0.3629330098628998 0.23387500643730164 0.9676830172538757 -0.09429900348186493
          0.21015700697898865 0.9423649907112122 -0.2603519856929779 0.2186499983072281 0.9664469957351685 -0.13480600714683533
          0.42181599140167236 0.8978570103645325 -0.12619100511074066 0.3510650098323822 0.9314960241317749 -0.09522999823093414
          0.24558700621128082 0.9305210113525391 0.27169498801231384 0.5098000168800354 0.8430129885673523 0.17155900597572327
          0.4234130084514618 0.905892014503479 0.008983000181615353 0.654699981212616 0.7137619853019714 0.24882100522518158
          0.5681099891662598 0.7306259870529175 0.378728985786438 0.6630150079727173 0.4782649874687195 0.5759109854698181
          0.6308749914169312 0.43226900696754456 0.6443129777908325 0.6630610227584839 0.4537909924983978 0.5953360199928284
          0.49424999952316284 0.45166701078414917 0.7427740097045898 0.33715200424194336 0.3445110023021698 0.8761510252952576
          0.14181199669837952 0.532397985458374 0.8345310091972351 0.5583549737930298 0.3450700044631958 0.7544310092926025
          0.4537140130996704 0.351267009973526 0.8189970254898071 0.455157995223999 0.4683319926261902 0.7572960257530212
          0.5639979839324951 0.2883079946041107 0.7738119959831238 0.08240800350904465 0.5731359720230103 0.8153060078620911
          0.13295699656009674 0.359127014875412 0.923770010471344 0.7353579998016357 0.5277450084686279 0.4251280128955841
          0.8285880088806152 0.31897100806236267 0.46010899543762207 0.08473999798297882 0.14736400544643402 0.9854450225830078
          -0.7304180264472961 0.6670640110969543 -0.14667600393295288 -0.6539490222930908 0.7418500185012817 -0.1483590006828308
          -0.8655189871788025 0.49253201484680176 -0.09104699641466141 -0.6725379824638367 0.7319039702415466 -0.10958600044250488
          -0.8574209809303284 0.49025601148605347 -0.15645399689674377 -0.8263700008392334 0.5353549718856812 -0.17466400563716888
          -0.90516197681427 0.4106670022010803 0.10969699919223785 -0.8464310169219971 0.5301079750061035 -0.05040699988603592
          -0.945343017578125 0.2711719870567322 0.181085005402565 -0.9176170229911804 0.1085129976272583 0.38236701488494873
          -0.9486690163612366 0.13660800457000732 0.28524699807167053 -0.8586220145225525 0.023166000843048096 0.5120850205421448
          0.1757269948720932 0.10711299628019333 0.9785940051078796 0.28763699531555176 0.006020999979227781 0.9577209949493408
          0.2486419975757599 0.1358180046081543 0.9590259790420532 0.36087799072265625 0.03029800020158291 0.9321209788322449
          0.19014999270439148 0.1495019942522049 0.9703050255775452 0.28982099890708923 -0.09339199960231781 0.9525129795074463
          0.3174540102481842 -0.08304599672555923 0.9446300268173218 0.35381799936294556 -0.051430001854896545 0.9338989853858948
          0.2512519955635071 0.012225000187754631 0.9678450226783752 0.2346320003271103 0.11258400231599808 0.9655429720878601
          0.26791301369667053 -0.031272001564502716 0.9629349708557129 0.4339909851551056 0.039514001458883286 0.9000499844551086
          0.4365899860858917 -0.03157699853181839 0.8991060256958008 -0.06357599794864655 0.23454700410366058 0.9700239896774292
          0.08554600179195404 0.20223599672317505 0.9755929708480835 0.12076199799776077 0.19130200147628784 0.9740740060806274
          -0.6852290034294128 0.1443829983472824 0.713873028755188 -0.7345029711723328 0.11703100055456161 0.6684380173683167
          -0.6920909881591797 0.2142840027809143 0.68927001953125 -0.8472869992256165 -0.04563299939036369 0.5291720032691956
          -0.6982290148735046 0.06773500144481659 0.7126629948616028 -0.5622649788856506 0.23839999735355377 0.7918480038642883
          0.03154800087213516 0.23776300251483917 0.9708110094070435 -0.41043901443481445 0.28575599193573 0.8659579753875732
          0.11869899928569794 0.25297701358795166 0.9601629972457886 0.13113200664520264 0.2341729998588562 0.9633110165596008
          -0.08056099712848663 0.2658349871635437 0.9606469869613647 0.9793530106544495 0.20215600728988647 0.00022600000374950469
          0.9716989994049072 0.0449099987745285 -0.2319130003452301 0.1673389971256256 0.9819070100784302 -0.08863600343465805
          0.45152199268341064 0.8434810042381287 -0.29097801446914673 0.19236500561237335 0.9522389769554138 -0.23714399337768555
          0.3049499988555908 0.8069350123405457 -0.5058280229568481 0.33687499165534973 0.7546600103378296 -0.563031017780304
          0.3397960066795349 0.6780940294265747 -0.6517109870910645 0.321960985660553 0.8428660035133362 -0.43118301033973694
          0.3901650011539459 0.7432119846343994 -0.5435140132904053 0.40509501099586487 0.7407339811325073 -0.5359209775924683
          0.27744901180267334 0.8418400287628174 -0.4629549980163574 -0.34844401478767395 0.9371749758720398 -0.017020000144839287
          -0.48123899102211 0.8583719730377197 0.17778299748897552 -0.38784900307655334 0.8523020148277283 0.3509350121021271
          -0.39546599984169006 0.8521109819412231 0.3428019881248474 -0.5219749808311462 0.7420949935913086 0.42052000761032104
          -0.5436679720878601 0.6889269948005676 0.47937899827957153 -0.37671399116516113 0.6349369883537292 0.6744940280914307
          -0.127033993601799 0.8215180039405823 0.5558509826660156 -0.660377025604248 0.7488120198249817 0.05641600117087364
          -0.2112009972333908 0.845242977142334 0.4908759891986847 -0.2307240068912506 0.6817169785499573 0.6942819952964783
          -0.6980440020561218 0.7065539956092834 0.11625999957323074 -0.04170500114560127 0.736361026763916 -0.6753029823303223
          0.3702389895915985 0.554485023021698 -0.7452989816665649 0.8758710026741028 0.15154099464416504 -0.4581319987773895
          0.8022559881210327 0.3304310142993927 -0.49719199538230896 -0.14258599281311035 0.841027021408081 -0.5218639969825745
          -0.3815920054912567 0.9232379794120789 0.04493299871683121 0.7085660099983215 0.6780149936676025 -0.19552400708198547
          0.607695996761322 0.791778028011322 -0.06159700080752373 -0.5052220225334167 0.7722160220146179 -0.38526999950408936
          0.16725300252437592 0.8884559869766235 -0.42740100622177124 0.13504000008106232 0.7373960018157959 -0.6618239879608154
          0.2673479914665222 0.9393309950828552 -0.2148990035057068 0.39872199296951294 0.8785679936408997 -0.26294299960136414
          0.8725799918174744 0.4789600074291229 -0.09592100232839584 0.8760939836502075 0.46858200430870056 -0.11353199928998947
          0.4815720021724701 0.8753489851951599 -0.04304900020360947 0.2331240028142929 0.9500619769096375 -0.2074500024318695
          0.3487290143966675 0.911965012550354 -0.21612100303173065 0.5035250186920166 0.8588520288467407 -0.0939989984035492
          0.7827789783477783 0.6062920093536377 -0.1402360051870346 0.6854109764099121 0.7266979813575745 0.04606499895453453
          0.7908390164375305 0.6016190052032471 0.1123720034956932 0.7061129808425903 0.7078030109405518 0.02047000080347061
          0.8474389910697937 0.4561010003089905 0.2716970145702362 0.8528180122375488 0.4943220019340515 0.16836899518966675
          0.8185719847679138 0.3059380054473877 0.48614901304244995 0.8389840126037598 0.2645300030708313 0.4755310118198395
          0.8083310127258301 0.11532899737358093 0.5773220062255859 0.5284640192985535 0.18839600682258606 0.8277879953384399
          0.3828969895839691 0.14546699821949005 0.9122660160064697 0.5337430238723755 0.051966000348329544 0.8440489768981934
          0.5588319897651672 0.07937400043010712 0.8254740238189697 0.6871659755706787 -0.005055000074207783 0.7264819741249084
          0.26659300923347473 0.0620729997754097 0.9618080258369446 0.8672680258750916 0.3321619927883148 0.3708289861679077
          0.9190620183944702 0.25754600763320923 0.29832199215888977 0.9513099789619446 0.0005249999812804163 0.30823400616645813
          0.935375988483429 0.08224300295114517 0.3439599871635437 0.94240802526474 0.1098719984292984 0.3159030079841614
          -0.7546600103378296 0.5932959914207458 -0.28015801310539246 -0.6734189987182617 0.6908980011940002 -0.2629980146884918
          -0.6166309714317322 0.7049229741096497 -0.3504990041255951 -0.7937740087509155 0.5624399781227112 -0.23148399591445923
          -0.7598680257797241 0.624127984046936 -0.18183399736881256 -0.8600119948387146 0.4750699996948242 -0.18624599277973175
          -0.8572970032691956 0.4838019907474518 -0.1760060042142868 -0.8340989947319031 0.49885299801826477 -0.23542200028896332
          -0.8571140170097351 0.49769800901412964 -0.13286100327968597 -0.8265339732170105 0.47608301043510437 -0.3003099858760834
          -0.9224500060081482 0.3851050138473511 -0.02791699953377247 -0.9744340181350708 0.2010599970817566 0.10026499629020691
          -0.9430270195007324 0.3229140043258667 -0.08016599714756012 -0.9818300008773804 0.05748099833726883 0.18084900081157684
          -0.9818660020828247 -0.06379599869251251 0.17851899564266205 -0.9598209857940674 -0.08947999775409698 0.26596400141716003
          -0.9743450284004211 -0.06001900136470795 0.21690699458122253 0.3198870122432709 -0.06325999647378922 0.9453409910202026
          0.2628999948501587 0.035555001348257065 0.9641680121421814 0.42597800493240356 -0.04215800017118454 0.903751015663147
          0.41892099380493164 -0.14434699714183807 0.8964759707450867 0.39588698744773865 -0.1321599930524826 0.9087399840354919
          0.4338670074939728 0.0967240035533905 0.8957700133323669 0.4096750020980835 -0.20252400636672974 0.8894670009613037
          0.569362998008728 -0.183787003159523 0.8012790083885193 0.5050050020217896 -0.060408998280763626 0.8610000014305115
          0.44412800669670105 -0.16341200470924377 0.88093501329422 0.4166660010814667 -0.165926992893219 0.8937879800796509
          0.4700460135936737 -0.08309800177812576 0.8787209987640381 0.4048149883747101 -0.1547980010509491 0.901199996471405
          0.44321098923683167 -0.16532500088214874 0.8810399770736694 0.7222920060157776 -0.3008340001106262 0.622730016708374