<?xml version="1.0"?>
<VTKFile type="PolyData" version="0.1" byte_order="LittleEndian" header_type="UInt32" compressor="vtkZLibDataCompressor">
  <PolyData>
    <Piece NumberOfPoints="1851" NumberOfVerts="0" NumberOfLines="0" NumberOfStrips="0" NumberOfPolys="3698">
      <PointData Normals="Normals">
        <DataArray type="Float32" Name="Normals" NumberOfComponents="3" format="ascii" RangeMin="0.9999992265047604" RangeMax="1.0000007708941734">
          -0.9757940173149109 -0.18978899717330933 0.10866100341081619 -0.9709979891777039 0.00025400001322850585 0.2390889972448349
          -0.996025025844574 -0.0890519991517067 -0.0018269999418407679 -0.9557350277900696 -0.2733739912509918 -0.10880199819803238
          -0.9307199716567993 -0.01827099919319153 0.36527499556541443 -0.9264709949493408 -0.33552101254463196 -0.17051999270915985
          -0.9318959712982178 -0.3274669945240021 -0.15599599480628967 -0.9707760214805603 -0.09582000225782394 0.22002699971199036
          -0.9628850221633911 -0.2698209881782532 0.007081999909132719 -0.994763970375061 0.08439599722623825 0.057631999254226685
          -0.9220020174980164 0.1549150049686432 0.35484200716018677 -0.9710519909858704 0.17390500009059906 0.16375400125980377
          -0.951557993888855 0.017185000702738762 -0.306988000869751 -0.9348739981651306 -0.16174599528312683 -0.3159869909286499
          -0.8635939955711365 -0.3338469862937927 -0.37782400846481323 -0.8815439939498901 0.13353799283504486 0.4528209865093231
          -0.9205350279808044 -0.049973998218774796 0.3874500095844269 -0.9285650253295898 0.03104100003838539 0.3698689937591553
          -0.8928419947624207 0.09704700112342834 0.4397889971733093 -0.8093540072441101 -0.387596994638443 -0.4412649869918823
          -0.8111600279808044 -0.4229219853878021 -0.4039260149002075 -0.9102309942245483 -0.35398098826408386 -0.21488800644874573
          -0.9788540005683899 -0.20377899706363678 0.0178810004144907 -0.9687830209732056 -0.0158890001475811 0.2473990023136139
          -0.9468050003051758 0.019776999950408936 0.3211989998817444 -0.9846060276031494 0.15487900376319885 -0.08101300150156021
          -0.8434159755706787 0.1704390048980713 0.5095099806785583 -0.8783479928970337 0.23551000654697418 0.4159820079803467
          -0.8907729983329773 0.27000799775123596 0.365539014339447 -0.9435309767723083 0.22414900362491608 0.24393999576568604
          -0.9752650260925293 0.20563599467277527 0.08106700330972672 -0.7700620293617249 -0.05667499825358391 -0.6354470252990723
          -0.8366289734840393 -0.09917200356721878 -0.5387179851531982 -0.8235840201377869 0.003292999928817153 -0.5671859979629517
          -0.9443110227584839 0.09271500259637833 -0.3157219886779785 -0.7967349886894226 -0.211777001619339 -0.5660079717636108
          -0.6744999885559082 -0.37599098682403564 -0.635358989238739 -0.8205549716949463 0.17608800530433655 0.543766975402832
          -0.9604169726371765 0.0974700003862381 0.2609559893608093 -0.8749060034751892 0.1467909961938858 0.4615100026130676
          -0.947970986366272 0.14055199921131134 0.28565099835395813 -0.8186659812927246 0.14433899521827698 0.5558350086212158
          -0.8934190273284912 0.15479500591754913 0.4217120110988617 -0.8785139918327332 0.13912400603294373 0.4570089876651764
          -0.6834830045700073 -0.3780530095100403 -0.6244419813156128 -0.675216019153595 -0.404246985912323 -0.6169819831848145
          -0.7861260175704956 -0.4190349876880646 -0.4543299973011017 -0.8961129784584045 -0.37523800134658813 -0.23701700568199158
          -0.9753220081329346 -0.21962599456310272 -0.022603999823331833 -0.995274007320404 -0.032552000135183334 0.09148500114679337
          -0.9683970212936401 0.18070699274539948 -0.17190900444984436 -0.849236011505127 0.1602250039577484 0.5031160116195679
          -0.8999009728431702 0.14702700078487396 0.41056200861930847 -0.82704097032547 0.36702701449394226 0.4257870018482208
          -0.8729190230369568 0.1676740050315857 0.45814600586891174 -0.8262779712677002 0.27480000257492065 0.49167999625205994
          -0.8750860095024109 0.3581080138683319 0.32554998993873596 -0.9349269866943359 0.2585679888725281 0.2430109977722168
          -0.9488549828529358 0.3126389980316162 0.04394799843430519 -0.5860049724578857 -0.19356699287891388 -0.7868480086326599
          -0.5629389882087708 -0.09533800184726715 -0.8209810256958008 -0.6816350221633911 -0.02571900002658367 -0.7312399744987488
          -0.8926290273666382 0.10947000235319138 -0.4372990131378174 -0.5297960042953491 -0.34202900528907776 -0.7761009931564331
          -0.9755579829216003 0.07981699705123901 0.20473499596118927 -0.9010519981384277 0.11364199966192245 0.4185590147972107
          -0.8730729818344116 0.15547899901866913 0.46213498711586 -0.8999429941177368 0.15125499665737152 0.4089300036430359
          -0.8660249710083008 0.1761689931154251 0.4679360091686249 -0.8170740008354187 0.13862499594688416 0.5596179962158203
          -0.8864049911499023 0.14142000675201416 0.44078001379966736 -0.8600119948387146 0.1679069995880127 0.4818579852581024
          -0.6975690126419067 -0.3755219876766205 -0.610230028629303 -0.44225001335144043 -0.33499500155448914 -0.8319820165634155
          -0.7474799752235413 -0.4561389982700348 -0.48291900753974915 -0.9798979759216309 -0.1887650042772293 -0.06455499678850174
          -0.8655520081520081 -0.39180800318717957 -0.3119400143623352 -0.7533550262451172 -0.4911330044269562 -0.43731600046157837
          -0.9423760175704956 -0.3177089989185333 -0.10482899844646454 -0.9966890215873718 -0.08070400357246399 0.00989999994635582
          -0.9734770059585571 -0.22620999813079834 0.03424299880862236 -0.9809190034866333 -0.15437500178813934 0.11818300187587738
          -0.8310610055923462 0.09849800169467926 -0.5473899841308594 -0.8857079744338989 0.17579799890518188 -0.4296709895133972
          -0.9466540217399597 0.23663300275802612 -0.21874800324440002 -0.8305550217628479 0.4446839988231659 0.33531299233436584
          -0.7796329855918884 0.4653649926185608 0.4190550148487091 -0.8105990290641785 0.3239389955997467 0.4878450036048889
          -0.7777169942855835 0.3609200119972229 0.5146769881248474 -0.828449010848999 0.21320199966430664 0.5178970098495483
          -0.7425410151481628 0.286408007144928 0.6054779887199402 -0.876259982585907 0.4283260107040405 0.2206919938325882
          -0.9405339956283569 0.2494650036096573 -0.23057100176811218 -0.9046859741210938 0.4227440059185028 -0.0532119981944561
          -0.8989580273628235 0.4215629994869232 0.11899100244045258 -0.9261500239372253 0.2812409996986389 -0.25129398703575134
          -0.3399690091609955 -0.23591800034046173 -0.9103649854660034 -0.28173398971557617 -0.17766299843788147 -0.9429010152816772
          -0.3745039999485016 -0.1060430034995079 -0.9211410284042358 -0.5624629855155945 -0.03261300176382065 -0.826179027557373
          -0.7834029793739319 0.05204800143837929 -0.6193310022354126 -0.6776649951934814 0.03064900077879429 -0.7347319722175598
          -0.33001598715782166 -0.3150370121002197 -0.8898550271987915 -0.9634299874305725 -0.13058200478553772 0.23398800194263458
          -0.9474049806594849 -0.06174499914050102 0.3140240013599396 -0.8137109875679016 0.023194000124931335 0.5808069705963135
          -0.8832600116729736 -0.19763599336147308 0.4251970052719116 -0.8438060283660889 -0.15041999518871307 0.5151360034942627
          -0.819616973400116 0.02194100059568882 0.5724920034408569 -0.7849929928779602 0.01643200032413006 0.6192870140075684
          -0.8584460020065308 0.1736699938774109 0.48260700702667236 -0.8500909805297852 0.1866849958896637 0.4924370050430298
          -0.8502140045166016 0.19498999416828156 0.4889940023422241 -0.7532309889793396 0.1710669994354248 0.6351220011711121
          -0.49056899547576904 -0.4089919924736023 -0.7694590091705322 -0.6335520148277283 -0.4854080080986023 -0.6024870276451111
          -0.13389499485492706 -0.25374600291252136 -0.957958996295929 -0.1923000067472458 -0.3430050015449524 -0.9194390177726746
          -0.24785900115966797 -0.4177590012550354 -0.8740959763526917 -0.6747589707374573 -0.4989979863166809 -0.5437840223312378
          -0.7762259840965271 -0.47711798548698425 -0.4121060073375702 -0.8641160130500793 -0.4064039885997772 -0.2968809902667999
          -0.5335599780082703 -0.5474470257759094 -0.6446830034255981 -0.5515729784965515 -0.6360229849815369 -0.5396689772605896
          -0.6802939772605896 -0.5909489989280701 -0.4335649907588959 -0.9000309705734253 -0.43538400530815125 -0.019600000232458115
          -0.8268839716911316 -0.510113000869751 -0.23674200475215912 -0.9193649888038635 -0.39001598954200745 0.051530998200178146
          -0.9140520095825195 -0.31476500630378723 0.25579699873924255 -0.5694670081138611 -0.03885199874639511 -0.8210960030555725
          -0.6808329820632935 0.06152300164103508 -0.7298510074615479 -0.9062049984931946 0.2637630105018616 -0.330485999584198
          -0.7764449715614319 0.2259179949760437 -0.5882970094680786 -0.8032370209693909 0.48579201102256775 0.3446980118751526
          -0.8290709853172302 0.482450008392334 0.28263700008392334 -0.7536450028419495 0.5316500067710876 0.38648098707199097
          -0.7170079946517944 0.48697298765182495 0.49875500798225403 -0.729794979095459 0.36250901222229004 0.5796440243721008
          -0.5930420160293579 0.4693320095539093 0.6542389988899231 -0.7894930243492126 0.27090001106262207 0.5507389903068542
          -0.7653470039367676 0.27973100543022156 0.5796499848365784 -0.8184589743614197 0.22606800496578217 0.5282210111618042
          -0.7266039848327637 0.2540619969367981 0.6383569836616516 -0.6892729997634888 0.2772569954395294 0.6693509817123413
          -0.8789929747581482 0.4704889953136444 0.07753100246191025 -0.8400160074234009 0.505840003490448 0.19621500372886658
          -0.865185022354126 0.36686599254608154 -0.341854989528656 -0.862625002861023 0.4755469858646393 -0.172435000538826
          -0.833361029624939 0.26219698786735535 -0.4865820109844208 -0.05694299936294556 -0.18208199739456177 -0.9816330075263977
          -0.021602999418973923 -0.2046090066432953 -0.9786049723625183 -0.2000340074300766 -0.18703199923038483 -0.9617720246315002
          -0.3468230068683624 -0.12194299697875977 -0.9299700260162354 -0.10847000032663345 -0.16566599905490875 -0.9801980257034302
          -0.7161819934844971 -0.2149360030889511 0.6639930009841919 -0.7528889775276184 -0.06447000056505203 0.6549829840660095
          -0.8053789734840393 -0.33907198905944824 0.48620399832725525 -0.7930589914321899 -0.4908770024776459 0.36069101095199585
          -0.7283070087432861 -0.26544299721717834 0.6317499876022339 0.28688400983810425 0.33959099650382996 0.8957539796829224
          -0.7629989981651306 0.2204509973526001 0.6076459884643555 0.30473798513412476 0.3785350024700165 0.8739830255508423
          -0.803957998752594 0.13696399331092834 0.578698992729187 -0.3525089919567108 -0.5022019743919373 -0.7896400094032288
          -0.2553269863128662 -0.47428300976753235 -0.8425340056419373 -0.4832350015640259 -0.533689022064209 -0.6940169930458069
          0.15692700445652008 -0.3178409934043884 -0.9350669980049133 0.06833799928426743 -0.3319369852542877 -0.9408230185508728
          0.020437000319361687 -0.4246160089969635 -0.9051430225372314 0.00023499999952036887 -0.4774770140647888 -0.8786439895629883
          -0.6816179752349854 -0.5755490064620972 -0.4518199861049652 -0.7711759805679321 -0.516107976436615 -0.37272098660469055
          -0.21411100029945374 -0.6635550260543823 -0.7168350219726562 -0.20080900192260742 -0.6129149794578552 -0.7642059922218323
          -0.3148219883441925 -0.723209023475647 -0.6147000193595886 -0.45418301224708557 -0.6977310180664062 -0.553974986076355
          -0.819894015789032 -0.5703369975090027 -0.04989900067448616 -0.6579440236091614 -0.6293320059776306 -0.41358399391174316
          -0.7783370018005371 -0.5798959732055664 -0.24064800143241882 -0.8425390124320984 -0.5133429765701294 0.163115993142128
          -0.4607990086078644 -0.06633000075817108 -0.8850229978561401 -0.6584609746932983 0.099932000041008 -0.7459509968757629
          -0.7835580110549927 0.5654309988021851 0.25753501057624817 -0.7444480061531067 0.5999500155448914 0.2930130064487457
          -0.6743959784507751 0.6112170219421387 0.4142509996891022 -0.6502860188484192 0.6730409860610962 0.3523400127887726
          -0.7164350152015686 0.4001759886741638 0.5714709758758545 -0.5790119767189026 0.4829519987106323 0.6568880081176758
          -0.6381700038909912 0.5809550285339355 0.5052040219306946 0.7457230091094971 0.3662700057029724 0.5565469861030579
          -0.6072250008583069 0.37724900245666504 0.699258029460907 0.7481639981269836 0.32821500301361084 0.5766509771347046
          -0.7835479974746704 0.2409909963607788 0.5726919770240784 -0.7530879974365234 0.22932499647140503 0.6166599988937378
          -0.7713000178337097 0.24098800122737885 0.5890859961509705 -0.7788069844245911 0.3222630023956299 0.5381510257720947
          -0.7551609873771667 0.2367279976606369 0.6113029718399048 -0.8335040211677551 0.5283330082893372 -0.16166099905967712
          -0.8093990087509155 0.5800619721412659 0.09165800362825394 -0.7853040099143982 0.5994589924812317 0.15474699437618256
          -0.8211749792098999 0.22356000542640686 -0.525065004825592 -0.770147979259491 0.45294898748397827 -0.4491199851036072
          -0.7496880292892456 0.3066920042037964 -0.5864359736442566 0.0633080005645752 -0.22701199352741241 -0.9718319773674011
          0.0204670000821352 -0.13611100614070892 -0.990481972694397 0.024800000712275505 -0.20424599945545197 -0.9786059856414795
          0.16344699263572693 -0.27432000637054443 -0.9476460218429565 -0.21015800535678864 -0.16591399908065796 -0.9634870290756226
          -0.011121000163257122 -0.33504199981689453 -0.9421370029449463 -0.08368600159883499 -0.21319499611854553 -0.9734190106391907
          -0.17667099833488464 -0.25652098655700684 -0.9502549767494202 -0.6531350016593933 -0.4104189872741699 0.636372983455658
          -0.6505789756774902 -0.3158020079135895 0.6906629800796509 -0.6930099725723267 -0.2139890044927597 0.6884369850158691
          -0.7472720146179199 -0.01561999972909689 0.6643350124359131 -0.6884430050849915 -0.12629300355911255 0.7142099738121033
          -0.6990180015563965 -0.49543699622154236 0.5156710147857666 -0.621084988117218 -0.610584020614624 0.4913659989833832
          -0.7457889914512634 -0.5978299975395203 0.29393699765205383 0.9675520062446594 0.07608599960803986 0.2409449964761734
          -0.8211870193481445 0.19527000188827515 0.5362100005149841 -0.7785500288009644 0.13448500633239746 0.6130040287971497
          -0.15949200093746185 -0.569811999797821 -0.8061490058898926 -0.05993900075554848 -0.5367000102996826 -0.8416420221328735
          0.2517409920692444 -0.41775500774383545 -0.8729869723320007 0.44106200337409973 -0.38458698987960815 -0.810899019241333
          0.26276499032974243 -0.5253919959068298 -0.8092700242996216 -0.4504910111427307 -0.6711810231208801 -0.5887060165405273
          -0.4194439947605133 -0.6912999749183655 -0.5883619785308838 -0.18510200083255768 -0.732679009437561 -0.6549190282821655
          0.10244199633598328 -0.6332200169563293 -0.7671629786491394 0.06730200350284576 -0.6959329843521118 -0.7149459719657898
          -0.14004500210285187 -0.7306550145149231 -0.6682299971580505 -0.6928150057792664 -0.6121810078620911 -0.3811059892177582
          -0.5853989720344543 -0.8019239902496338 -0.119268998503685 -0.6808419823646545 -0.6859890222549438 -0.25665798783302307
          -0.8024510145187378 -0.583266019821167 0.12599200010299683 -0.539143979549408 -0.6797850131988525 -0.49720799922943115
          -0.2452470064163208 -0.10731200128793716 -0.9635030031204224 -0.49815401434898376 -0.037351999431848526 -0.8662840127944946
          -0.6968110203742981 0.18276500701904297 -0.6935790181159973 -0.48579901456832886 0.10724599659442902 -0.8674659729003906
          -0.6992179751396179 0.7078610062599182 0.1001340001821518 -0.6558470129966736 0.7079660296440125 0.2620069980621338
          -0.6680009961128235 0.7252669930458069 0.16662199795246124 -0.5489330291748047 0.7416700124740601 0.3854849934577942
          -0.5709180235862732 0.7551530003547668 0.322174996137619 -0.531374990940094 0.77115797996521 0.35064899921417236
          0.37689700722694397 0.49029698967933655 0.7858480215072632 -0.6884980201721191 0.39328598976135254 0.609341025352478
          -0.6107249855995178 0.6407849788665771 0.46519899368286133 -0.6426960229873657 0.5214509963989258 0.5612760186195374
          -0.6989690065383911 0.3471589982509613 0.6252390146255493 -0.7195839881896973 0.25721099972724915 0.6450129747390747
          -0.7389810085296631 0.26106300950050354 0.6210899949073792 -0.734266996383667 0.3694849908351898 0.5695030093193054
          -0.8424670100212097 0.1673949956893921 0.5120829939842224 -0.7131369709968567 0.2676039934158325 0.6479380130767822
          -0.7506800293922424 0.431333988904953 0.5004299879074097 -0.7361459732055664 0.39452001452445984 0.54994797706604
          -0.7551950216293335 0.40092700719833374 -0.5185930132865906 -0.7993729710578918 0.5812190175056458 -0.15227100253105164
          -0.7568759918212891 0.6534050107002258 -0.014162000268697739 -0.6363120079040527 0.3027310073375702 -0.7095500230789185
          0.28109899163246155 -0.36317700147628784 -0.8883050084114075 -0.15218199789524078 -0.3950900137424469 -0.9059489965438843
          0.11250200122594833 -0.5064120292663574 -0.8549219965934753 0.30309098958969116 -0.49390798807144165 -0.8149790167808533
          -0.15136399865150452 -0.1673779934644699 -0.9742040038108826 -0.09096100181341171 -0.2686139941215515 -0.9589430093765259
          -0.12477999925613403 -0.12104299664497375 -0.9847729802131653 -0.5607020258903503 -0.5039370059967041 0.657010018825531
          -0.5868250131607056 -0.5494300127029419 0.5947790145874023 -0.5545709729194641 -0.49931800365448 0.6656820178031921
          -0.5737320184707642 -0.39871498942375183 0.7154430150985718 -0.7257959842681885 -0.08181100338697433 0.683027982711792
          -0.7547760009765625 0.0358630008995533 0.6550019979476929 -0.671684980392456 -0.20220200717449188 0.7127079963684082
          -0.6206470131874084 -0.5910990238189697 0.5151690244674683 -0.5329840183258057 -0.6031169891357422 0.5934460163116455
          -0.7235170006752014 -0.5768120288848877 0.3792249858379364 -0.8084380030632019 0.08976499736309052 0.5816959738731384
          -0.6530439853668213 0.16267000138759613 0.7396429777145386 -0.76105797290802 0.25089699029922485 0.5981979966163635
          0.4447160065174103 -0.4920539855957031 -0.7484049797058105 0.6042230129241943 -0.45255500078201294 -0.655826985836029
          0.5061339735984802 -0.42603299021720886 -0.7498829960823059 0.3884730041027069 -0.6282150149345398 -0.6741179823875427
          -0.1463959962129593 -0.7186669707298279 -0.679768979549408 -0.44458600878715515 -0.6400690078735352 -0.6266220211982727
          -0.01397399976849556 -0.6639630198478699 -0.747635006904602 -0.14568600058555603 -0.6500149965286255 -0.745826005935669
          0.16299399733543396 -0.7131199836730957 -0.6818299889564514 -0.3367820084095001 -0.7403939962387085 -0.581716001033783
          0.7507479786872864 -0.6170219779014587 -0.2359279990196228 0.23536400496959686 -0.829945981502533 -0.5057610273361206
          -0.7241299748420715 -0.6833239793777466 -0.0932919979095459 -0.7436079978942871 -0.6516150236129761 0.14981700479984283
          -0.7529249787330627 -0.5831040143966675 0.3051140010356903 -0.24687600135803223 0.031300000846385956 -0.9685410261154175
          -0.5367609858512878 0.21795399487018585 -0.8150969743728638 -0.7066159844398499 0.6769120097160339 -0.20611600577831268
          -0.643779993057251 0.7499290108680725 -0.15216200053691864 -0.6135309934616089 0.7893909811973572 0.021025000140070915
          -0.5878180265426636 0.8076109886169434 -0.04727400094270706 -0.5730010271072388 0.7893620133399963 0.22040599584579468
          -0.6064329743385315 0.7942630052566528 0.03722599893808365 -0.3995169997215271 0.8643829822540283 0.3053320050239563
          -0.5741819739341736 0.7170779705047607 0.39511099457740784 -0.3475010097026825 0.8818470239639282 0.31873100996017456
          -0.46556299924850464 0.7886430025100708 0.4016129970550537 -0.4687590003013611 0.836338996887207 0.2842569947242737
          -0.6323369741439819 0.4366590082645416 0.6399049758911133 -0.6925240159034729 0.30444300174713135 0.6540070176124573
          -0.6471189856529236 0.38256001472473145 0.6594589948654175 -0.5571249723434448 0.6094179749488831 0.5641120076179504
          -0.5340489745140076 0.7096530199050903 0.4595490097999573 -0.5649480223655701 0.49567899107933044 0.6596490144729614
          -0.7345269918441772 0.35864201188087463 0.5760610103607178 -0.7165769934654236 0.27984899282455444 0.6389070153236389
          -0.7022429704666138 0.07461000233888626 0.7080169916152954 -0.5680630207061768 0.5296440124511719 0.6299059987068176
          -0.559840977191925 0.4661079943180084 0.6850709915161133 0.7454019784927368 0.40959399938583374 0.5259360074996948
          -0.5830169916152954 0.35042598843574524 -0.7330020070075989 -0.7592120170593262 0.5700389742851257 -0.3140909969806671
          -0.6540910005569458 0.5090460181236267 -0.5594969987869263 -0.7493280172348022 0.6106119751930237 -0.2562429904937744
          0.036486998200416565 -0.4208660125732422 -0.9063889980316162 0.4353559911251068 -0.5842069983482361 -0.6849579811096191
          0.2245579957962036 -0.5705869793891907 -0.7899389863014221 0.3032970130443573 -0.6034690141677856 -0.73745197057724
          0.550881028175354 -0.501459002494812 -0.6671350002288818 -0.025103000923991203 -0.19187699258327484 -0.9810979962348938
          -0.010670999996364117 -0.08980300277471542 -0.9959020018577576 0.2069839984178543 -0.3852570056915283 -0.8992969989776611
          0.14655999839305878 -0.29092898964881897 -0.9454529881477356 -0.09329000115394592 -0.0460049994289875 -0.994575023651123
          -0.4735170006752014 -0.5899059772491455 0.6540589928627014 -0.46783000230789185 -0.5538420081138611 0.6887630224227905
          -0.4814220070838928 -0.5576050281524658 0.6762470006942749 -0.5751140117645264 -0.3630729913711548 0.7330899834632874
          -0.4171780049800873 -0.6161029934883118 0.6681169867515564 -0.4901530146598816 -0.557898998260498 0.6697009801864624
          -0.7481579780578613 -0.08193299919366837 0.6584429740905762 -0.8028159737586975 0.28538501262664795 0.5234900116920471
          -0.8297420144081116 -0.012218999676406384 0.5580130219459534 -0.5768600106239319 -0.37292900681495667 0.7267439961433411
          -0.6576430201530457 -0.2886039912700653 0.6958540081977844 -0.7168480157852173 -0.12371300160884857 0.686165988445282
          -0.6477530002593994 -0.574184000492096 0.5007290244102478 -0.6349189877510071 -0.6949049830436707 0.3376150131225586
          -0.7454299926757812 0.3929930031299591 0.5384150147438049 0.5143740177154541 -0.5800619721412659 -0.6316230297088623
          0.6593859791755676 -0.5160059928894043 -0.5467609763145447 0.6806430220603943 -0.5096629858016968 -0.526278018951416
          0.5710809826850891 -0.5993289947509766 -0.5609549880027771 0.492000013589859 -0.5447620153427124 -0.6790949702262878
          0.17142100632190704 -0.6505039930343628 -0.7399049997329712 -0.17691099643707275 -0.6487969756126404 -0.7401120066642761
          0.0932369977235794 -0.5840380191802979 -0.806352972984314 0.4099780023097992 -0.4447129964828491 -0.7963340282440186
          0.7781689763069153 -0.5448629856109619 -0.3123739957809448 -0.2927379906177521 -0.7495560050010681 -0.5936920046806335
          -0.5245620012283325 -0.7995529770851135 -0.2924880087375641 -0.3219499886035919 -0.7420369982719421 -0.5879870057106018
          -0.03638000041246414 -0.7046650052070618 -0.708607017993927 -0.6694030165672302 -0.7417250275611877 0.04175199940800667
          -0.6649029850959778 -0.7222229838371277 0.19051800668239594 -0.24283699691295624 0.049118999391794205 -0.9688230156898499
          -0.3844580054283142 0.1994989961385727 -0.9013280272483826 -0.6759240031242371 0.5620260238647461 -0.4767119884490967
          -0.5759710073471069 0.6808300018310547 -0.45246800780296326 -0.5443940162658691 0.807794988155365 -0.22606000304222107
          -0.4983130097389221 0.8549590110778809 0.14397700130939484 -0.4684489965438843 0.8750519752502441 -0.12182100117206573
          -0.3212110102176666 0.9253110289573669 0.20155000686645508 -0.26141101121902466 0.9425430297851562 0.20803000032901764
          -0.2871969938278198 0.9259349703788757 0.24527999758720398 -0.4294770061969757 0.804220974445343 0.41082701086997986
          -0.20346300303936005 0.9272760152816772 0.31426501274108887 -0.19698399305343628 0.9522160291671753 0.2334129959344864
          -0.30857500433921814 0.8592290282249451 0.408053994178772 -0.39119699597358704 0.776298999786377 0.4942930042743683
          -0.42980799078941345 0.7179229855537415 0.547586977481842 -0.3474760055541992 0.9284229874610901 0.1314990073442459
          -0.3975299894809723 0.9143610000610352 0.07689700275659561 -0.6216109991073608 0.3582639992237091 0.6965969800949097
          -0.7067610025405884 0.2722490131855011 0.652970016002655 -0.4563699960708618 0.6292489767074585 0.6291049718856812
          -0.5517770051956177 0.3944779932498932 0.7347990274429321 -0.48778799176216125 0.5011730194091797 0.7147650122642517
          -0.6424000263214111 0.4737139940261841 0.6024259924888611 -0.7010509967803955 0.44374099373817444 0.5582299828529358
          -0.6601079702377319 0.2606619894504547 0.7044950127601624 -0.674714982509613 0.3287999927997589 0.6607959866523743
          0.7470200061798096 0.4321419894695282 0.5051869750022888 0.3623479902744293 0.5931310057640076 0.7189570069313049
          -0.46099498867988586 0.40779998898506165 -0.7881510257720947 -0.6996740102767944 0.5993080139160156 -0.3889560103416443
          0.4837909936904907 -0.6478130221366882 -0.5884600281715393 0.5882109999656677 -0.6279280185699463 -0.5096219778060913
          0.4075799882411957 -0.5594019889831543 -0.721767008304596 0.4611870050430298 -0.6324040293693542 -0.6223909854888916
          0.17039500176906586 -0.21677400171756744 -0.9612360000610352 -0.0638979971408844 0.009438999928534031 -0.9979119896888733
          0.07266200333833694 -0.030003000050783157 -0.9969050288200378 -0.18502600491046906 0.057156000286340714 -0.9810699820518494
          0.1543869972229004 -0.12427499890327454 -0.9801629781723022 0.17443999648094177 -0.06404200196266174 -0.9825829863548279
          0.3003840148448944 -0.28521600365638733 -0.9101769924163818 -0.3658599853515625 -0.5706580281257629 0.7351840138435364
          -0.30518999695777893 -0.7153580188751221 0.628587007522583 -0.10680899769067764 -0.7331100106239319 0.6716709733009338
          -0.3847160041332245 -0.735139012336731 0.5581799745559692 -0.22568300366401672 -0.6466869711875916 0.7286040186882019
          -0.5123649835586548 -0.6830130219459534 0.5205529928207397 -0.26280298829078674 -0.670179009437561 0.6941140294075012
          -0.49221399426460266 -0.5364140272140503 0.685554027557373 -0.2504960000514984 -0.7415890097618103 0.622331976890564
          -0.3446959853172302 -0.704721987247467 0.6201220154762268 -0.23555099964141846 -0.7640050053596497 0.6006770133972168
          -0.37641701102256775 -0.740975022315979 0.5561169981956482 -0.7159180045127869 0.09376099705696106 0.691860020160675
          -0.735821008682251 0.11708299815654755 0.6669769883155823 -0.820559024810791 0.16259199380874634 0.5479469895362854
          -0.7099339962005615 0.43309101462364197 0.5553609728813171 -0.6762089729309082 0.4845399856567383 0.5549430251121521
          -0.7218539714813232 0.46208301186561584 0.515175998210907 -0.6245930194854736 -0.19172200560569763 0.7570509910583496
          -0.5906379818916321 -0.20121300220489502 0.7814480066299438 -0.5225039720535278 -0.4444670081138611 0.7276250123977661
          -0.6788970232009888 0.05707300081849098 0.7320119738578796 -0.6255829930305481 -0.6359760165214539 0.45186498761177063
          -0.4931580126285553 -0.8667479753494263 0.07445099949836731 -0.4801720082759857 -0.7997230291366577 0.36038699746131897
          -0.373199999332428 -0.920632004737854 0.11470700055360794 0.7151470184326172 -0.45689499378204346 -0.5289729833602905
          0.7075639963150024 -0.4517480134963989 -0.5433940291404724 0.6317470073699951 -0.5618550181388855 -0.5340560078620911
          0.684922993183136 -0.49738800525665283 -0.5324339866638184 0.6396660208702087 -0.6249729990959167 -0.4474779963493347
          0.622048020362854 -0.592736005783081 -0.5115860104560852 0.6039239764213562 -0.5508469939231873 -0.5760579705238342
          0.611365020275116 -0.47750601172447205 -0.6310470104217529 0.5752410292625427 -0.5516480207443237 -0.6039720177650452
          0.6749280095100403 -0.21792900562286377 -0.7049670219421387 -0.006560999900102615 -0.639955997467041 -0.7683839797973633
          0.32802700996398926 -0.4996809959411621 -0.8016960024833679 0.565779983997345 -0.2500540018081665 -0.785726010799408
          -0.5599870085716248 -0.8274670243263245 -0.041388001292943954 -0.3324590027332306 -0.8298760056495667 -0.44808200001716614
          -0.11510200053453445 -0.8052600026130676 -0.5816419720649719 -0.2909330129623413 -0.8680599927902222 -0.4022800028324127
          -0.15068300068378448 -0.7546060085296631 -0.6386430263519287 -0.2745540142059326 0.22987699508666992 -0.9336900115013123
          -0.5783489942550659 0.4791930019855499 -0.6602169871330261 -0.463454008102417 0.5333399772644043 -0.7076429724693298