<?xml version="1.0"?>
<VTKFile type="PolyData" version="0.1" byte_order="LittleEndian" header_type="UInt32" compressor="vtkZLibDataCompressor">
  <PolyData>
    <Piece NumberOfPoints="1769" NumberOfVerts="0" NumberOfLines="0" NumberOfStrips="0" NumberOfPolys="3534">
      <PointData Normals="Normals">
        <DataArray type="Float32" Name="Normals" NumberOfComponents="3" format="ascii" RangeMin="0.9999992539592905" RangeMax="1.000000726394821">
          0.642221987247467 -0.2859170138835907 0.7111979722976685 0.5673559904098511 -0.40869900584220886 0.7148929834365845
          0.7152600288391113 -0.19887299835681915 0.6699650287628174 0.6221780180931091 -0.42900198698043823 0.6548680067062378
          0.597432017326355 -0.4883910119533539 0.636040985584259 0.667294979095459 -0.5484110116958618 0.5039470195770264
          0.6840490102767944 -0.3140450119972229 0.6583709716796875 0.3705660104751587 -0.5826380252838135 0.7233350276947021
          0.45632800459861755 -0.49774399399757385 0.7375739812850952 0.5564799904823303 -0.26772600412368774 0.7865449786186218
          0.7440770268440247 -0.18646599352359772 0.641543984413147 0.6059120297431946 -0.2053530067205429 0.7685700058937073
          0.5578839778900146 -0.6721640229225159 0.48678600788116455 0.40693598985671997 -0.7242010235786438 0.5567190051078796
          0.4172450006008148 -0.5013099908828735 0.7580199837684631 0.5282480120658875 -0.4758880138397217 0.7031959891319275
          0.794517993927002 -0.5658760070800781 0.22028599679470062 0.7766559720039368 -0.25793200731277466 0.5746970176696777
          0.877705991268158 -0.38874000310897827 0.28020399808883667 0.6096270084381104 -0.7599539756774902 0.2254440039396286
          0.39360201358795166 -0.27907299995422363 0.8758969902992249 0.5290859937667847 -0.18156400322914124 0.8289160132408142
          0.5446360111236572 -0.3232089877128601 0.7738909721374512 0.3971309959888458 -0.30576199293136597 0.8653309941291809
          0.2856990098953247 -0.20805299282073975 0.9354619979858398 0.21303899586200714 -0.25388699769973755 0.9434810280799866
          0.2854439914226532 -0.10891799628734589 0.9521859884262085 0.43669798970222473 -0.8441389799118042 0.31100600957870483
          0.2612600028514862 -0.6817799806594849 0.6833149790763855 0.3296859860420227 -0.8765239715576172 0.3507330119609833
          0.1566449999809265 -0.7652689814567566 0.6243600249290466 0.11915899813175201 -0.47192999720573425 0.8735460042953491
          0.8929669857025146 -0.44742199778556824 0.04923800006508827 0.7106999754905701 -0.6946709752082825 -0.11107300221920013
          0.7021980285644531 -0.08683999627828598 0.7066659927368164 0.8221719861030579 -0.16683200001716614 0.5442429780960083
          0.760487973690033 -0.04992099851369858 0.6474310159683228 0.9292539954185486 -0.2505599856376648 0.27149099111557007
          0.9494339823722839 -0.31349900364875793 0.017111999914050102 0.4819929897785187 -0.8756200075149536 0.031168000772595406
          0.17287200689315796 -0.11826100200414658 0.97781902551651 0.05565899983048439 0.015401000156998634 0.9983310103416443
          0.23136599361896515 -0.06495899707078934 0.970695972442627 0.4534569978713989 -0.0053900000639259815 0.8912619948387146
          0.568045973777771 0.04725499823689461 0.8216390013694763 0.24585600197315216 0.10035800188779831 0.9640970230102539
          0.24665699899196625 -0.24922099709510803 0.9365090131759644 0.05545999854803085 -0.08921699970960617 0.99446702003479
          0.04580700024962425 -0.5946499705314636 0.8026790022850037 0.084647998213768 -0.8495950102806091 0.5205990076065063
          0.09550300240516663 -0.9635109901428223 0.25005000829696655 0.3332720100879669 -0.9424399733543396 0.027148999273777008
          -0.03671799972653389 -0.689225971698761 0.7236149907112122 0.0024770000018179417 -0.583092987537384 0.8124009966850281
          0.4580659866333008 -0.3974039852619171 0.7951390147209167 0.8739929795265198 -0.47110098600387573 -0.11916600167751312
          0.5792610049247742 -0.7444379925727844 -0.33206701278686523 0.6634309887886047 -0.6700569987297058 -0.33299198746681213
          0.7463300228118896 -0.5750740170478821 -0.3350850045681 0.505469024181366 -0.8466809988021851 -0.1662299931049347
          0.5259079933166504 -0.7822170257568359 -0.33400198817253113 0.5791990160942078 0.07198300212621689 0.8120020031929016
          0.6670989990234375 -0.005375000182539225 0.744949996471405 0.9328960180282593 -0.20556600391864777 0.29571598768234253
          0.8351389765739441 -0.01464799977838993 0.5498440265655518 0.978767991065979 -0.18079699575901031 0.09657199680805206
          0.9858819842338562 -0.1633089929819107 0.03695699945092201 0.8676459789276123 -0.41737601161003113 -0.27016299962997437
          0.9693740010261536 -0.23242799937725067 -0.07931900024414062 -0.09738700091838837 0.03897999972105026 0.9944829940795898
          -0.027790000662207603 0.20532099902629852 0.9782999753952026 -0.2828899919986725 0.19193899631500244 0.9397510290145874
          0.419283002614975 0.23817799985408783 0.8760550022125244 0.3386920094490051 0.2885909974575043 0.895546019077301
          0.21563300490379333 0.28478699922561646 0.9340230226516724 0.40860098600387573 -0.25820401310920715 0.8754289746284485
          -0.002337000099942088 -0.17009200155735016 0.9854249954223633 0.04370399937033653 -0.5108550190925598 0.858555018901825
          -0.12052900344133377 -0.9207109808921814 0.37116700410842896 -0.020468000322580338 -0.8044270277023315 0.5936989784240723
          0.10208500176668167 -0.9456130266189575 0.30886098742485046 -0.12752500176429749 -0.9654790163040161 0.2271299958229065
          0.04497100040316582 -0.998507022857666 0.030988000333309174 0.11345800012350082 -0.9832500219345093 -0.142645001411438
          0.3428089916706085 -0.9320610165596008 -0.11723999679088593 -0.3042609989643097 -0.5828850269317627 0.7534390091896057
          -0.21705299615859985 -0.47197601199150085 0.8544750213623047 0.20622199773788452 -0.4544520080089569 0.8665720224380493
          -0.14884300529956818 -0.38519999384880066 0.9107509851455688 0.5657569766044617 -0.6751850247383118 -0.4733330011367798
          0.6313070058822632 -0.5594620108604431 -0.5370789766311646 0.34449800848960876 -0.8874599933624268 -0.3061619997024536
          0.3237909972667694 -0.8207299709320068 -0.47070398926734924 0.45502999424934387 0.239888995885849 0.8575549721717834
          0.6481840014457703 0.18983300030231476 0.7374429702758789 0.9675559997558594 -0.024737000465393066 0.2514449954032898
          0.7736930251121521 0.2200540006160736 0.5941179990768433 0.8979550004005432 0.03892200067639351 0.4383620023727417
          0.9880499839782715 0.07133200019598007 0.13663600385189056 0.9940900206565857 -0.1080550029873848 0.010475000366568565
          0.9117069840431213 -0.3377169966697693 -0.23395900428295135 -0.1918109953403473 -0.03448599949479103 0.9808260202407837
          -0.28985100984573364 0.1678760051727295 0.9422339797019958 0.026612000539898872 0.30231600999832153 0.9528359770774841
          -0.3201879858970642 0.23769499361515045 0.9170500040054321 -0.38708099722862244 0.22575700283050537 0.8939809799194336
          -0.5016059875488281 0.3677299916744232 0.7830489873886108 0.20596300065517426 0.3516789972782135 0.9131820201873779
          0.13329200446605682 0.41871100664138794 0.8982840180397034 0.27945899963378906 0.5112190246582031 0.8127470016479492
          -0.19925500452518463 -0.17675800621509552 0.9638739824295044 0.7930880188941956 -0.5579630136489868 0.24431100487709045
          -0.11702100187540054 -0.7558979988098145 0.6441469788551331 0.942808985710144 -0.27686500549316406 0.18562300503253937
          0.3626900017261505 -0.8401020169258118 0.40334099531173706 -0.21968600153923035 -0.9735310077667236 -0.06305400282144547
          -0.25834399461746216 -0.9465619921684265 0.19307799637317657 0.053123001009225845 -0.9467419981956482 -0.3175800144672394
          -0.37279900908470154 -0.3359439969062805 0.8649640083312988 -0.4127959907054901 -0.3371979892253876 0.846107006072998
          -0.3884350061416626 -0.5951949954032898 0.7034639716148376 -0.35770100355148315 -0.1713310033082962 0.9179840087890625
          0.38797399401664734 -0.7102140188217163 -0.5874279737472534 0.49239298701286316 -0.5319690108299255 -0.6888819932937622
          0.58918297290802 -0.5309640169143677 -0.6090480089187622 0.7705590128898621 -0.47993001341819763 -0.4194110035896301
          0.42702001333236694 -0.5332379937171936 -0.7302820086479187 0.08845199644565582 -0.8803099989891052 -0.4660789966583252
          0.5763499736785889 0.35307401418685913 0.7369940280914307 0.9126840233802795 0.13583199679851532 0.38543298840522766
          0.8072630167007446 0.32085099816322327 0.49535900354385376 0.6469969749450684 0.41957899928092957 0.6366699934005737
          0.9036110043525696 0.2570759952068329 0.34263500571250916 0.9891149997711182 0.11653299629688263 0.08984699845314026
          0.9373490214347839 0.29671698808670044 0.18258099257946014 0.8735299706459045 0.3445880115032196 0.34380799531936646
          0.9808369874954224 -0.1836100071668625 -0.0651639997959137 0.9987589716911316 -0.03661800175905228 0.03376200050115585
          0.9810590147972107 0.09913899749517441 0.1664160043001175 0.9458640217781067 -0.2643429934978485 -0.18831999599933624
          0.8114759922027588 -0.38824599981307983 -0.43677398562431335 -0.3381420075893402 0.07847999781370163 0.9378169775009155
          -0.13753899931907654 0.38224101066589355 0.9137700200080872 -0.41286399960517883 0.4230160117149353 0.8065980076789856
          -0.36063700914382935 0.04358699917793274 0.9316869974136353 -0.4068929851055145 0.11120600253343582 0.906682014465332
          -0.3614490032196045 0.347786009311676 0.8651009798049927 -0.39069700241088867 0.6203299760818481 0.6801069974899292
          -0.3658579885959625 0.5542410016059875 0.7476400136947632 -0.35433700680732727 0.5658270120620728 0.7445030212402344
          -0.023280000314116478 0.42871999740600586 0.9031370282173157 -0.02776000089943409 0.5654370188713074 0.8243240118026733
          0.4572719931602478 0.5053250193595886 0.7318120002746582 0.1505649983882904 0.6300070285797119 0.7618539929389954
          -0.14523600041866302 0.6604089736938477 0.7367269992828369 -0.31428900361061096 -0.7580329775810242 0.5714960098266602
          -0.308896005153656 -0.8750389814376831 0.3726789951324463 -0.4654560089111328 -0.8729109764099121 0.1462080031633377
          -0.07272200286388397 -0.9544770121574402 -0.28928500413894653 -0.5412529706954956 -0.8406569957733154 0.018479999154806137
          -0.19168800115585327 -0.9314290285110474 -0.309347003698349 -0.4096829891204834 -0.9064159989356995 -0.10281199961900711
          -0.3530069887638092 -0.9056220054626465 0.23502099514007568 -0.42199400067329407 -0.10933300107717514 0.8999819755554199
          -0.46772000193595886 -0.25353899598121643 0.8467320203781128 -0.4411259889602661 -0.48111599683761597 0.7575849890708923
          -0.4315609931945801 -0.053853001445531845 0.900475025177002 -0.4038189947605133 -0.7070029973983765 0.5805829763412476
          0.19629499316215515 -0.7695500254631042 -0.6076679825782776 0.4159489870071411 -0.5814740061759949 -0.6991959810256958
          0.46632200479507446 -0.4809519946575165 -0.7424479722976685 0.4867430031299591 -0.5441830158233643 -0.6833339929580688
          0.3700219988822937 -0.5431699752807617 -0.7536910176277161 -0.16290900111198425 -0.8694289922714233 -0.4664269983768463
          0.8162590265274048 0.3644329905509949 0.44822999835014343 0.6843770146369934 0.4755760133266449 0.5526800155639648
          0.359360009431839 0.5983160138130188 0.7161549925804138 0.9408950209617615 0.2711780071258545 0.20292800664901733
          0.8218560218811035 0.4823170006275177 0.3031899929046631 0.7917029857635498 0.49509501457214355 0.3578929901123047
          0.9595069885253906 -0.19363999366760254 -0.20457500219345093 0.9802029728889465 0.007246000226587057 -0.19786299765110016
          0.9892629981040955 0.1259469985961914 0.07413200289011002 0.9247890114784241 0.2792949974536896 0.2583779990673065
          0.8327940106391907 -0.25773000717163086 -0.4899280071258545 -0.21721699833869934 0.5336700081825256 0.8173210024833679
          -0.390394002199173 0.14064499735832214 0.909841001033783 -0.39727500081062317 0.25922998785972595 0.8803250193595886
          -0.3503830134868622 0.5565149784088135 0.753341019153595 -0.2863819897174835 0.7285280227661133 0.6222800016403198
          -0.2172289937734604 0.6362640261650085 0.7402560114860535 -0.3350349962711334 0.6528540253639221 0.6793619990348816
          -0.5154889822006226 0.609807014465332 0.6020020246505737 -0.5346770286560059 0.483040988445282 0.6933919787406921
          -0.3575980067253113 0.45666199922561646 0.8146070241928101 -0.3871789872646332 0.4490230083465576 0.8052769899368286
          -0.1683640033006668 0.6572909951210022 0.7345899939537048 -0.17702099680900574 0.5394750237464905 0.823183000087738
          0.0834830030798912 0.6574190258979797 0.748885989189148 -0.09058299660682678 0.6980059742927551 0.7103400230407715
          -0.4182420074939728 -0.8253840208053589 0.37922999262809753 -0.5963699817657471 -0.7576540112495422 0.26514801383018494
          -0.6748499870300293 -0.7154489755630493 0.1808599978685379 -0.580502986907959 -0.8142579793930054 -0.0001140000022132881
          -0.6925699710845947 -0.7123839855194092 0.11337999999523163 -0.4104590117931366 -0.8614550232887268 -0.29903000593185425
          -0.5066559910774231 -0.857837975025177 -0.08610499650239944 -0.5891759991645813 -0.32819101214408875 0.7383509874343872
          -0.5381289720535278 -0.048555999994277954 0.841463029384613 -0.49859899282455444 -0.5481690168380737 0.6714990139007568
          -0.49925100803375244 -0.628741979598999 0.5961819887161255 0.020994000136852264 -0.8198959827423096 -0.5721269845962524
          0.19071899354457855 -0.7382060289382935 -0.6470530033111572 0.37143000960350037 -0.5790290236473083 -0.7257859706878662
          0.6394450068473816 -0.3556540012359619 -0.6816310286521912 0.26770201325416565 -0.6194639801979065 -0.7379699945449829
          0.4488070011138916 -0.48683100938796997 -0.7493780255317688 0.38603198528289795 -0.5682669878005981 -0.7266719937324524
          0.43402299284935 -0.4670250117778778 -0.7703970074653625 0.4913710057735443 -0.48034900426864624 -0.7265120148658752
          -0.3178330063819885 -0.9077360033988953 -0.2738560140132904 -0.18684899806976318 -0.8868229985237122 -0.422650009393692
          -0.2424429953098297 -0.9101340174674988 -0.33597299456596375 0.36927101016044617 0.6686319708824158 0.6454229950904846
          0.5693590044975281 0.6292459964752197 0.5290369987487793 0.12942799925804138 0.6853820085525513 0.7165889739990234
          0.7807829976081848 0.5364310145378113 0.3203440010547638 0.5800179839134216 0.6742780208587646 0.4570859968662262
          0.6776710152626038 0.6200039982795715 0.39542099833488464 0.6110950112342834 0.6984859704971313 0.3723970055580139
          0.9721850156784058 0.12655800580978394 -0.19707700610160828 0.8527590036392212 -0.11313100159168243 -0.5099049806594849
          0.9637259840965271 0.25657400488853455 0.07349099963903427 0.8852570056915283 0.40729600191116333 0.22456899285316467
          -0.5366430282592773 0.41183000802993774 0.7364850044250488 -0.5823310017585754 0.17225700616836548 0.7944920063018799
          -0.5566290020942688 0.49576398730278015 0.6666200160980225 -0.6308900117874146 0.5499879717826843 0.5472570061683655
          -0.19347600638866425 0.7800340056419373 0.5950750112533569 -0.1316390037536621 0.7598119974136353 0.6366770267486572
          0.023886999115347862 0.7759400010108948 0.6303539872169495 -0.6456289887428284 0.4369780123233795 0.6262699961662292
          -0.7708680033683777 0.4269550144672394 0.47272801399230957 -0.5144010186195374 0.4222480058670044 0.7463899850845337
          -0.6950560212135315 0.2588610053062439 0.6707370281219482 -0.488305002450943 0.3849799931049347 0.7831659913063049
          -0.5279070138931274 0.28536298871040344 0.7999259829521179 -0.5248950123786926 0.3404940068721771 0.7800959944725037
          0.0008859999943524599 0.6627399921417236 0.7488489747047424 0.13050299882888794 0.6478719711303711 0.7504870295524597
          -0.11435800045728683 0.5435519814491272 0.8315489888191223 -0.3316879868507385 0.4047589898109436 0.8521460294723511
          -0.24402999877929688 -0.7491059899330139 0.6158649921417236 -0.5421910285949707 -0.7114120125770569 0.44712600111961365
          -0.6471030116081238 -0.6368280053138733 0.41917601227760315 -0.6753129959106445 -0.633309006690979 0.37798500061035156
          -0.8018100261688232 -0.5519099831581116 0.22912000119686127 -0.6535919904708862 -0.7562810182571411 -0.02925500087440014
          -0.7854610085487366 -0.5976250171661377 0.16091999411582947 -0.5161200165748596 -0.8344659805297852 -0.1930990070104599
          -0.7038779854774475 -0.1120389997959137 0.701429009437561 -0.6203529834747314 -0.4024350047111511 0.6732069849967957
          0.17623400688171387 -0.5706689953804016 0.8020470142364502 0.18309099972248077 -0.7406499981880188 -0.6464629769325256
          0.04511500149965286 -0.827830970287323 -0.5591610074043274 0.41106998920440674 -0.4702889919281006 -0.7809290289878845
          0.3060060143470764 -0.634781002998352 -0.7095159888267517 0.6930639743804932 -0.25760599970817566 -0.6732770204544067
          0.36307600140571594 -0.5193480253219604 -0.7735980153083801 0.608618974685669 -0.3317669928073883 -0.7207729816436768
          0.4525890052318573 -0.566789984703064 -0.6884120106697083 0.42374300956726074 -0.48376700282096863 -0.7657750248908997
          0.48752400279045105 -0.4822019934654236 -0.7278739809989929 0.47634100914001465 -0.5199589729309082 -0.709043025970459
          0.48347899317741394 -0.4369179904460907 -0.7585189938545227 0.44543299078941345 -0.54448002576828 -0.7107250094413757
          -0.15981000661849976 -0.9071670174598694 -0.3892410099506378 -0.5223010182380676 -0.8483210206031799 -0.08690399676561356
          -0.38530200719833374 -0.9223020076751709 -0.030024999752640724 -0.3635439872741699 -0.9131969809532166 -0.1841380000114441
          0.30743300914764404 0.735975980758667 0.6031780242919922 0.4154700040817261 0.7215030193328857 0.5539119839668274
          0.5389140248298645 0.7709929943084717 0.3393250107765198 0.729049026966095 0.6144289970397949 0.3016040027141571
          0.14622899889945984 0.7670530080795288 0.6246979832649231 0.367235004901886 0.7798539996147156 0.5069180130958557
          0.2616569995880127 0.8579490184783936 0.44210800528526306 0.9194579720497131 -0.00026000000070780516 -0.393189013004303
          0.9329239726066589 0.35736000537872314 0.044123999774456024 0.9546989798545837 0.0497249998152256 -0.2933900058269501
          0.9221410155296326 0.035013001412153244 -0.3852660059928894 0.684319019317627 -0.19478900730609894 -0.7026839852333069
          0.8417450189590454 -0.0724169984459877 -0.534995973110199 -0.757565975189209 0.1631930023431778 0.6320300102233887
          -0.753387987613678 0.34672001004219055 0.5587409734725952 -0.8229190111160278 0.37511199712753296 0.42672601342201233
          -0.16462300717830658 0.73260498046875 0.6604470014572144 -0.16239699721336365 0.7855240106582642 0.5971429944038391
          -0.13769400119781494 0.7347970008850098 0.6641640067100525 -0.8439310193061829 0.1857299953699112 0.5032740235328674
          -0.7950620055198669 0.30530399084091187 0.5240859985351562 -0.7343369722366333 0.23828400671482086 0.6355860233306885
          -0.7265369892120361 0.06965100020170212 0.6835880279541016 -0.6000959873199463 0.2769100069999695 0.750469982624054
          -0.7708250284194946 0.08017700165510178 0.6319820284843445 -0.5410940051078796 0.29651299118995667 0.7869549989700317
          -0.5509070158004761 0.2621760070323944 0.7923160195350647 -0.5118299722671509 0.2745960056781769 0.8140190243721008
          -0.610522985458374 0.20902200043201447 0.7639179825782776 0.1453859955072403 0.7229509949684143 0.6754299998283386
          0.3314169943332672 0.7117409706115723 0.6193450093269348 0.33344200253486633 0.6918879747390747 0.640395998954773
          0.26319700479507446 0.6647869944572449 0.6991320252418518 0.024320000782608986 0.5840640068054199 0.8113430142402649
          -0.14068299531936646 0.5034760236740112 0.8524789810180664 -0.37182000279426575 0.36085501313209534 0.8552970290184021
          0.43951699137687683 -0.6674919724464417 0.6010649800300598 -0.8769360184669495 -0.33756300806999207 0.3421019911766052
          -0.7560700178146362 -0.289887011051178 0.5867909789085388 0.9574429988861084 -0.19636200368404388 0.21152999997138977
          -0.8892999887466431 -0.3563750088214874 0.28660398721694946 -0.6674039959907532 -0.7439420223236084 -0.03349300101399422
          -0.8303629755973816 -0.5352240204811096 0.15502600371837616 -0.8996800184249878 -0.28934499621391296 0.32688799500465393
          -0.5967540144920349 -0.7974500060081482 -0.08920799940824509 -0.7809510231018066 -0.07591000199317932 0.6199619770050049
          -0.6911349892616272 -0.2804020047187805 0.6661139726638794 0.2388859987258911 -0.6753810048103333 -0.6977069973945618
          0.03289400041103363 -0.8016030192375183 -0.5969520211219788 0.411190003156662 -0.5229669809341431 -0.7466109991073608
          0.539385974407196 -0.32072100043296814 -0.7785890102386475 0.6026269793510437 -0.4260709881782532 -0.6747620105743408
          0.561564028263092 -0.4725779891014099 -0.6792029738426208 0.5128750205039978 -0.5882880091667175 -0.6252009868621826
          0.6901829838752747 -0.25456398725509644 -0.6773809790611267 0.36121800541877747 -0.6314370036125183 -0.6861550211906433
          0.42530399560928345 -0.4905650019645691 -0.7605670094490051 0.4541420042514801 -0.48580801486968994 -0.7468240261077881
          0.34596899151802063 -0.6584540009498596 -0.6683890223503113 -0.3065840005874634 -0.8296849727630615 -0.4665060043334961
          -0.216949000954628 -0.813817024230957 -0.5391049981117249 -0.5641509890556335 -0.8175680041313171 0.11539900302886963
          -0.7342180013656616 -0.6743659973144531 0.07844900339841843 -0.6738759875297546 -0.7277380228042603 0.1276250034570694
          -0.5557050108909607 -0.8290240168571472 0.06254100054502487 -0.4364440143108368 -0.8372690081596375 -0.3293890058994293
          -0.6487740278244019 -0.7552589774131775 -0.09314899891614914 0.5288400053977966 0.7588750123977661 0.380048006772995
          0.3742170035839081 0.8599690198898315 0.34700900316238403 0.34727099537849426 0.888480007648468 0.30001100897789
          0.48550400137901306 0.7725359797477722 0.40923699736595154 0.7895410060882568 0.5666540265083313 0.23564499616622925
          0.012318000197410583 0.7860860228538513 0.617995023727417 0.07751400023698807 0.8846650123596191 0.45973798632621765
          0.9670370221138 0.2544420063495636 -0.009957999922335148 0.81843101978302 -0.12464399635791779 -0.5609229803085327
          0.9732699990272522 0.1212799996137619 -0.19502900540828705 0.9078680276870728 -0.0321040004491806 -0.4180249869823456
          0.6638950109481812 -0.1856749951839447 -0.7244089841842651 0.6109070181846619 -0.2076359987258911 -0.7639889717102051
          0.5115339756011963 -0.3070580065250397 -0.8025259971618652 -0.15894800424575806 0.8019090294837952 0.5759140253067017
          -0.03509100154042244 0.8095459938049316 0.5860059857368469 -0.8046090006828308 0.3087089955806732 0.5072500109672546
          -0.8969169855117798 -0.008565999567508698 0.44211599230766296 -0.8472719788551331 0.1997070014476776 0.4921869933605194
          -0.7745010256767273 0.19830599427223206 0.6006860136985779 -0.7329570055007935 0.008305000141263008 0.6802250146865845
          -0.8091800212860107 -0.10248800367116928 0.5785539746284485 -0.8435660004615784 0.0018189999973401427 0.5370230078697205
          -0.6496570110321045 0.12958599627017975 0.749101996421814 -0.524133026599884 0.2266789972782135 0.8209149837493896
          0.20962199568748474 0.8299319744110107 0.5169820189476013 0.3945379853248596 0.8182650208473206 0.418069988489151
          0.4939819872379303 0.7037109732627869 0.5106589794158936 0.15077899396419525 0.5822579860687256 0.7989000082015991
          0.32066598534584045 0.6396939754486084 0.698544979095459 0.46597298979759216 0.6633650064468384 0.5855050086975098
          -0.06667499989271164 0.5105080008506775 0.8572840094566345 -0.4931679964065552 0.23121799528598785 0.8386440277099609
          -0.25668400526046753 0.3760490119457245 0.8903369903564453 -0.9171019792556763 -0.1498039960861206 0.36943501234054565
          -0.9005470275878906 -0.05580100044608116 0.4311639964580536 -0.8694940209388733 -0.33694198727607727 0.36118000745773315
          -0.9009680151939392 -0.11559700220823288 0.4182020127773285 -0.023963000625371933 -0.7549650073051453 -0.6553270220756531
          0.13141599297523499 -0.7028340101242065 -0.6991090178489685 0.7808259725570679 -0.2791540026664734 -0.558912992477417
          0.6058449745178223 -0.4264509975910187 -0.6716330051422119 0.5297549962997437 -0.5617129802703857 -0.6354830265045166
          0.5412359833717346 -0.5244899988174438 -0.657247006893158 0.6448240280151367 -0.5067980289459229 -0.5721520185470581
          0.5831159949302673 -0.46449199318885803 -0.6664999723434448 0.7641689777374268 -0.119439996778965 -0.6338610053062439
          0.28119999170303345 -0.6688799858093262 -0.6881319880485535 0.2755889892578125 -0.5405510067939758 -0.7948930263519287
          0.08647199720144272 -0.614093005657196 -0.7844820022583008 0.2244269996881485 -0.5008050203323364 -0.8359590172767639
          0.37280699610710144 -0.6753090023994446 -0.6363750100135803 0.25804200768470764 -0.7317330241203308 -0.6308580040931702
          0.4313949942588806 -0.6492159962654114 -0.6264309883117676 0.13404400646686554 -0.7090790271759033 -0.6922709941864014
          -0.6373779773712158 -0.7101629972457886 -0.2990260124206543 -0.3184660077095032 -0.7486370205879211 -0.5814819931983948
          -0.184006005525589 -0.774586021900177 -0.6051099896430969 -0.7272329926490784 -0.6298890113830566 0.27271199226379395
          -0.6655210256576538 -0.7126150131225586 0.22194799780845642 -0.7723619937896729 -0.5620530247688293 0.29589301347732544
          -0.7612329721450806 -0.6344479918479919 0.13416199386119843 -0.5895879864692688 -0.7691529989242554 -0.24655699729919434
          -0.8462910056114197 -0.5326210260391235 0.01028900034725666 -0.7348459959030151 -0.6640329957008362 -0.1380629986524582
          0.15648700296878815 0.8937119841575623 0.42046499252319336 0.6166700124740601 0.7336750030517578 0.2853749990463257
          0.31197598576545715 0.844730019569397 0.4348579943180084 0.7677099704742432 0.6104810237884521 0.19477100670337677
          0.8882169723510742 0.4525099992752075 0.07940399646759033 0.9452800154685974 0.316552996635437 -0.07898899912834167
          0.8444730043411255 0.012776000425219536 -0.5354459881782532 0.7310100197792053 -0.02798599936068058 -0.6817929744720459
          0.9339560270309448 0.1799270063638687 -0.30879199504852295 0.9092469811439514 0.3916870057582855 -0.14089499413967133
          0.44110798835754395 -0.2797830104827881 -0.852728009223938 0.5769129991531372 -0.04416700080037117 -0.8156099915504456
          0.4914799928665161 -0.1649779975414276 -0.8551200032234192 -0.8433160185813904 -0.12418299913406372 0.5228739976882935
          -0.9413040280342102 -0.17527200281620026 0.2884899973869324 -0.884198009967804 -0.045402999967336655 0.46490100026130676
          -0.6807680130004883 0.017734000459313393 0.7322850227355957 -0.7723979949951172 -0.08367700129747391 0.6296020150184631
          -0.588962972164154 0.1511719971895218 0.7938950061798096 0.2744390070438385 0.8681989908218384 0.4134170114994049
          0.5811259746551514 0.7836639881134033 0.21946200728416443 0.3775370121002197 0.9065600037574768 0.1887190043926239
          0.6314539909362793 0.6984300017356873 0.33684098720550537 0.6528139710426331 0.6830570101737976 0.32751598954200745
          0.6860489845275879 0.6192010045051575 0.3820039927959442 0.33022600412368774 0.6151530146598816 0.7159180045127869
          0.09440799802541733 0.5084879994392395 0.8558779954910278 0.32332101464271545 0.5731639862060547 0.7529579997062683
          0.4050849974155426 0.6527339816093445 0.6401900053024292 0.7491909861564636 0.5768240094184875 0.32555699348449707
          0.6016470193862915 0.5917450189590454 0.5365250110626221 -0.05355300009250641 0.4762380123138428 0.8776839971542358
          -0.4328100085258484 0.2398650050163269 0.8689879775047302 -0.15033100545406342 0.3998570144176483 0.9041659832000732
          -0.8818579912185669 -0.17996400594711304 0.4358200132846832 -0.8478950262069702 -0.44102799892425537 0.2942259907722473
          -0.09100600332021713 -0.5998110175132751 -0.7949489951133728 0.0441260002553463 -0.5384889841079712 -0.8414760231971741
          0.7413979768753052 -0.3243800103664398 -0.5874580144882202 0.868232011795044 -0.11741899698972702 -0.48206400871276855
          0.641281008720398 -0.5153629779815674 -0.5684720277786255 0.679813027381897 -0.4631119966506958 -0.5686669945716858
          0.7316759824752808 -0.35433900356292725 -0.5823180079460144 0.9100810289382935 0.07427199929952621 -0.40772101283073425
          0.8429340124130249 0.16439400613307953 -0.5122849941253662 0.6926289796829224 0.10698699951171875 -0.7133150100708008
          0.07301600277423859 -0.515038013458252 -0.8540520071983337 -0.16451500356197357 -0.6388260126113892 -0.7515559792518616