<?xml version="1.0"?>
<VTKFile type="PolyData" version="0.1" byte_order="LittleEndian" header_type="UInt32" compressor="vtkZLibDataCompressor">
  <PolyData>
    <Piece NumberOfPoints="1997" NumberOfVerts="0" NumberOfLines="0" NumberOfStrips="0" NumberOfPolys="3990">
      <PointData Normals="Normals">
        <DataArray type="Float32" Name="Normals" NumberOfComponents="3" format="ascii" RangeMin="0.9999992675230289" RangeMax="1.0000008299637158">
          0.5749130249023438 -0.8160079717636108 0.06004900112748146 0.716401994228363 -0.6971229910850525 0.02809000015258789
          0.29833200573921204 -0.9159449934959412 0.26840800046920776 0.3222399950027466 -0.9466559886932373 0.0019409999949857593
          0.6820669770240784 -0.7157779932022095 -0.14982099831104279 0.484046995639801 -0.8423539996147156 -0.23693600296974182
          0.4537700116634369 -0.8732270002365112 0.17767199873924255 0.7340080142021179 -0.654833972454071 0.1800680011510849
          0.7838360071182251 -0.6209319829940796 -0.006657000165432692 0.7227780222892761 -0.6075090169906616 -0.3294309973716736
          0.7700459957122803 -0.5813050270080566 -0.26289600133895874 -0.059682998806238174 -0.9354789853096008 0.34830498695373535
          -0.04658399894833565 -0.9500349760055542 0.3086470067501068 0.1232289969921112 -0.9664409756660461 0.22540299594402313
          -0.01592399924993515 -0.9948229789733887 -0.10036499798297882 -0.08656500279903412 -0.992044985294342 0.09139800071716309
          0.2900489866733551 -0.9362769722938538 -0.19813300669193268 0.6468499898910522 -0.7102500200271606 -0.2777230143547058
          0.2683669924736023 -0.9080929756164551 -0.321476012468338 0.43863600492477417 -0.7763159871101379 -0.45269399881362915
          0.5192450284957886 -0.7450289726257324 -0.41870900988578796 0.12557600438594818 -0.9548019766807556 0.2694140076637268
          0.4548270106315613 -0.8414369821548462 0.29174599051475525 0.6269500255584717 -0.6702409982681274 0.39712798595428467
          0.7576990127563477 -0.6169630289077759 0.21271899342536926 0.751928985118866 -0.5519919991493225 0.36042699217796326
          0.6795899868011475 -0.6771140098571777 0.2822670042514801 0.7149040102958679 -0.6930919885635376 0.09239300340414047
          0.6700019836425781 -0.7275260090827942 -0.14765800535678864 0.5874750018119812 -0.7015810012817383 -0.4033069908618927
          0.6757550239562988 -0.5182819962501526 -0.5241559743881226 0.4840709865093231 -0.5941290259361267 -0.6424059867858887
          0.6872090101242065 -0.587785005569458 -0.42691001296043396 0.7028629779815674 -0.5194979906082153 -0.4859069883823395
          -0.2816280126571655 -0.9006479978561401 0.330936998128891 -0.5040410161018372 -0.7572069764137268 0.4154280126094818
          -0.38656100630760193 -0.87391597032547 0.29468899965286255 -0.26217401027679443 -0.8974589705467224 0.3547289967536926
          -0.26885300874710083 -0.9554010033607483 0.12217699736356735 -0.3247379958629608 -0.9319660067558289 0.16119800508022308
          0.016176000237464905 -0.9925079941749573 -0.12110699713230133 0.1906680017709732 -0.8889110088348389 -0.41651201248168945
          -0.000977999996393919 -0.9623669981956482 -0.2717509865760803 0.587261974811554 -0.6007789969444275 -0.5423910021781921
          0.38022199273109436 -0.7404080033302307 -0.5542809963226318 0.0987740010023117 -0.9053329825401306 0.41305699944496155
          0.35301700234413147 -0.8180410265922546 0.4540790021419525 0.42449599504470825 -0.6808469891548157 0.5968679785728455
          0.6347249746322632 -0.5253239870071411 0.5667089819908142 0.7704409956932068 -0.5666859745979309 0.29203999042510986
          0.5840839743614197 -0.5905029773712158 0.5569130182266235 0.6892520189285278 -0.5300480127334595 0.493943989276886
          0.695127010345459 -0.48949098587036133 0.5264949798583984 0.5388439893722534 -0.7408689856529236 0.40094900131225586
          0.6508119702339172 -0.7507699728012085 0.11308600008487701 0.5541890263557434 -0.8115209937095642 0.18522199988365173
          0.5386170148849487 -0.8258630037307739 -0.1668590009212494 0.4832479953765869 -0.7772300243377686 -0.40296998620033264
          0.57088702917099 -0.541824996471405 -0.6168580055236816 0.5751640200614929 -0.42164701223373413 -0.7009990215301514
          0.38600900769233704 -0.8177449703216553 -0.4269540011882782 0.49460700154304504 -0.4212830066680908 -0.7601869702339172
          0.3052529990673065 -0.7363640069961548 -0.6038110256195068 0.26049500703811646 -0.5305169820785522 -0.806656002998352
          0.16684800386428833 -0.585565984249115 -0.7932680249214172 0.3900269865989685 -0.4267989993095398 -0.8159170150756836
          -0.4988740086555481 -0.7855740189552307 0.36605799198150635 -0.6041179895401001 -0.7224559783935547 0.3363020122051239
          -0.6824619770050049 -0.6160969734191895 0.3932810127735138 -0.6951259970664978 -0.582768976688385 0.4209269881248474
          -0.4186759889125824 -0.8738459944725037 0.24719299376010895 -0.5344250202178955 -0.7530279755592346 0.3838469982147217
          -0.32495999336242676 -0.8351539969444275 0.44375500082969666 -0.26093000173568726 -0.9652010202407837 -0.01737299934029579
          -0.59095698595047 -0.7759850025177002 0.22049300372600555 0.06954500079154968 -0.8379480242729187 -0.5412999987602234
          -0.11529099941253662 -0.9324550032615662 -0.342397004365921 -0.2181359976530075 -0.9624339938163757 -0.16167299449443817
          0.33064699172973633 -0.693198025226593 -0.6404290199279785 0.006115000229328871 -0.8761730194091797 0.48195698857307434
          0.05443999916315079 -0.8550400137901306 0.5156970024108887 0.5226889848709106 -0.5221109986305237 0.6739410161972046
          0.37487998604774475 -0.576183021068573 0.7262769937515259 0.07225099951028824 -0.7353960275650024 0.6737750172615051
          0.01883300021290779 -0.8138099908828735 0.5808259844779968 0.5689219832420349 -0.3856230080127716 0.726377010345459
          0.6256070137023926 -0.3431690037250519 0.7006070017814636 0.40867099165916443 -0.49778100848197937 0.7649850249290466
          0.5787659883499146 -0.3460249900817871 0.7384420037269592 0.36735999584198 -0.6192079782485962 0.6939939856529236
          0.44153401255607605 -0.6950269937515259 0.567438006401062 0.28749600052833557 -0.804282009601593 0.5200740098953247
          0.2528350055217743 -0.6698079705238342 0.6981629729270935 0.473129004240036 -0.8376950025558472 0.2727929949760437
          0.3701759874820709 -0.9289559721946716 -0.003135999897494912 0.3828279972076416 -0.8754649758338928 -0.294964998960495
          0.5331590175628662 -0.4952149987220764 -0.6859319806098938 0.3916569948196411 -0.5168730020523071 -0.761214017868042
          0.48664501309394836 -0.35846298933029175 -0.7966690063476562 0.4963330030441284 -0.308245986700058 -0.8115649819374084
          0.25547701120376587 -0.9289780259132385 -0.26782700419425964 0.14028200507164001 -0.8138729929924011 -0.563854992389679
          0.2412330061197281 -0.8598139882087708 -0.45002999901771545 0.07564499974250793 -0.7336750030517578 -0.675275981426239
          0.19686399400234222 -0.4370560050010681 -0.8776249885559082 0.04239499941468239 -0.5079450011253357 -0.8603460192680359
          -0.01994200050830841 -0.6319940090179443 -0.7747169733047485 0.22581399977207184 -0.21080699563026428 -0.951088011264801
          -0.7756689786911011 -0.5086939930915833 0.3735879957675934 -0.5560010075569153 -0.7280240058898926 0.4010530114173889
          -0.6181489825248718 -0.6930410265922546 0.37092599272727966 -0.8191999793052673 -0.4146310091018677 0.3962239921092987
          -0.7826449871063232 -0.5271689891815186 0.3309969902038574 -0.7592419981956482 -0.47701698541641235 0.4427259862422943
          -0.3589009940624237 -0.818136990070343 0.44926899671554565 -0.5115749835968018 -0.8562009930610657 0.07219299674034119
          -0.6403300166130066 -0.7564899921417236 0.1330460011959076 -0.7754610180854797 -0.5770450234413147 0.2562820017337799
          0.1167759969830513 -0.6962509751319885 -0.7082359790802002 -0.2641089856624603 -0.8389999866485596 -0.47573599219322205
          -0.1092199981212616 -0.7258999943733215 -0.6790739893913269 -0.41977500915527344 -0.8658239841461182 -0.2722820043563843
          -0.29583799839019775 -0.924481987953186 -0.24044300615787506 -0.4979099929332733 -0.8659840226173401 -0.046452999114990234
          -0.3666580021381378 -0.8116580247879028 0.4547230005264282 0.2628999948501587 -0.4396379888057709 0.8588380217552185
          0.03934599831700325 -0.6283910274505615 0.7769020199775696 -0.36789199709892273 -0.7709580063819885 0.5198839902877808
          -0.37272000312805176 -0.713433027267456 0.5933740139007568 0.39558398723602295 -0.33118799328804016 0.8566370010375977
          0.4549970030784607 -0.17839400470256805 0.8724409937858582 0.5531989932060242 -0.2550100088119507 0.7930579781532288
          0.42109599709510803 -0.2977199852466583 0.8567619919776917 0.28874099254608154 -0.44696199893951416 0.846671998500824
          0.12322500348091125 -0.76146399974823 0.636385977268219 0.20338700711727142 -0.877547025680542 0.43421798944473267
          0.0552619993686676 -0.46676400303840637 0.8826540112495422 0.31064000725746155 -0.9296429753303528 0.19815899431705475
          0.21562500298023224 -0.941332995891571 0.25961199402809143 0.20297500491142273 -0.9743890166282654 0.09678199887275696
          0.3284049928188324 -0.3762809932231903 -0.866349995136261 0.09014499932527542 -0.5677120089530945 -0.8182770013809204
          0.505469024181366 -0.23355700075626373 -0.8306339979171753 0.4340690076351166 -0.25975099205970764 -0.8626199960708618
          0.4494929909706116 -0.10762900114059448 -0.8867759704589844 0.14634299278259277 -0.9784179925918579 -0.14587999880313873
          0.14377200603485107 -0.9257220029830933 -0.34981098771095276 0.09780000150203705 -0.9225500226020813 -0.37327900528907776
          0.01636200025677681 -0.8195719718933105 -0.5727429986000061 -0.02629600092768669 -0.6946660280227661 -0.7188519835472107
          0.7363470196723938 -0.2900860011577606 -0.6112639904022217 0.3185040056705475 -0.2680650055408478 -0.9092280268669128
          -0.14201900362968445 -0.5076770186424255 -0.8497620224952698 0.14522500336170197 -0.39916300773620605 -0.9053059816360474
          0.031089000403881073 -0.21248899400234222 -0.9766690135002136 0.09591799974441528 -0.14526599645614624 -0.9847319722175598
          0.12917500734329224 -0.0647289976477623 -0.9895070195198059 0.34688401222229004 0.0217289999127388 -0.9376559853553772
          -0.8417590260505676 -0.3796660006046295 0.3837909996509552 -0.6372929811477661 -0.6719030141830444 0.37736400961875916
          -0.8527920246124268 -0.4059779942035675 0.32852500677108765 -0.6285070180892944 -0.5935770273208618 0.5026379823684692
          -0.684203028678894 -0.5174450278282166 0.5139240026473999 -0.7680850028991699 -0.4730600118637085 0.43157801032066345
          -0.6355900168418884 -0.6360509991645813 0.43756601214408875 -0.8481510281562805 -0.4351859986782074 0.30208200216293335
          -0.7229509949684143 -0.6805599927902222 0.11907900124788284 -0.8475189805030823 -0.43351998925209045 0.3062230050563812
          -0.625478982925415 -0.7659569978713989 -0.14861400425434113 -0.5147780179977417 -0.7664700150489807 -0.3840929865837097
          -0.3581399917602539 -0.7490100264549255 -0.5574219822883606 -0.25057798624038696 -0.6599550247192383 -0.7082870006561279
          -0.4805949926376343 -0.703823983669281 -0.5231249928474426 0.10628800094127655 -0.4696820080280304 0.8764140009880066
          -0.11972799897193909 -0.4512439966201782 0.8843330144882202 -0.05611699819564819 -0.5172020196914673 0.8540220260620117
          -0.09218200296163559 -0.41744598746299744 0.904013991355896 0.2602890133857727 -0.24409499764442444 0.9341670274734497
          -0.3815680146217346 -0.6235330104827881 0.6823580265045166 0.37105900049209595 -0.11172600090503693 0.9218630194664001
          0.29554399847984314 -0.0845709964632988 0.9515780210494995 0.19046400487422943 -0.27293500304222107 0.9429900050163269
          0.21461999416351318 -0.2065020054578781 0.954617977142334 0.10841800272464752 -0.6832630038261414 0.7220780253410339
          0.23403100669384003 -0.789143979549408 0.5678750276565552 0.17631599307060242 -0.8786290287971497 0.4437600076198578
          0.19714200496673584 -0.9135040044784546 0.3558729887008667 0.02940800040960312 -0.4801099896430969 0.8767150044441223
          0.011216999962925911 -0.3045729994773865 0.9524229764938354 0.16918900609016418 -0.5270439982414246 0.8328260183334351
          0.011105000041425228 -0.3988809883594513 0.9169359803199768 0.09786800295114517 -0.1836490035057068 0.9781079888343811
          -0.09093999862670898 -0.37135401368141174 0.9240270256996155 -0.10137999802827835 -0.2343049943447113 0.9668620228767395
          0.22339999675750732 -0.9141839742660522 0.33817100524902344 0.13102200627326965 -0.9862030148506165 -0.10117600113153458
          0.1762319952249527 -0.9808319807052612 -0.08312799781560898 0.36152198910713196 -0.8484740257263184 0.38651400804519653
          0.34498000144958496 -0.9345790147781372 0.0868929997086525 0.09960699826478958 -0.40373000502586365 -0.9094399809837341
          0.0245789997279644 -0.4984929859638214 -0.8665450215339661 0.35113900899887085 -0.2693209946155548 -0.8967540264129639
          0.31311801075935364 -0.2133139967918396 -0.9254480004310608 -0.22485899925231934 -0.5815520286560059 -0.7818160057067871
          0.47991400957107544 -0.02510100044310093 -0.8769559860229492 0.3662700057029724 -0.2575629949569702 -0.8941519856452942
          0.5268830060958862 -0.08753900229930878 -0.8454179763793945 0.5164269804954529 -0.03153400123119354 -0.8557500243186951
          0.05747999995946884 -0.7975019812583923 -0.6005719900131226 0.2677040100097656 -0.9429609775543213 -0.19788700342178345
          0.1955849975347519 -0.8388199806213379 -0.5080620050430298 -0.09374500066041946 -0.5317580103874207 -0.8416919708251953
          0.001449999981559813 -0.49179500341415405 -0.870710015296936 0.067562997341156 -0.5945519804954529 -0.8012139797210693
          0.8324710130691528 -0.1256130039691925 -0.5396419763565063 0.8241959810256958 -0.1685439944267273 -0.5406420230865479
          -0.17688600718975067 -0.2532680034637451 -0.9510869979858398 -0.23132799565792084 -0.34804201126098633 -0.908490002155304
          -0.2971790134906769 -0.2687329947948456 -0.916225016117096 -0.11864399909973145 -0.21343199908733368 -0.9697269797325134
          -0.061386000365018845 -0.13488100469112396 -0.9889580011367798 0.23419399559497833 -0.07357800006866455 -0.969402015209198
          0.07378699630498886 -0.14198100566864014 -0.9871150255203247 0.4862560033798218 -0.00773600023239851 -0.8737819790840149
          -0.8371750116348267 -0.39888501167297363 0.37420299649238586 -0.8538500070571899 -0.4399760067462921 0.27813899517059326
          -0.56706702709198 -0.5298029780387878 0.6306700110435486 -0.6318609714508057 -0.48301100730895996 0.6061779856681824
          -0.4413119852542877 -0.4772759974002838 0.7599030137062073 -0.702318012714386 -0.4526279866695404 0.5494340062141418
          -0.7364270091056824 -0.40907999873161316 0.5388219952583313 -0.7952529788017273 -0.3063009977340698 0.5232130289077759
          -0.8063309788703918 -0.4831100106239319 0.3412269949913025 -0.8491899967193604 -0.3220439851284027 0.4185270071029663
          -0.8302649855613708 -0.4174329936504364 0.3693369925022125 -0.8010299801826477 -0.5958690047264099 0.05736900120973587
          -0.8164250254631042 -0.41935300827026367 0.3969799876213074 -0.8561199903488159 -0.4035860002040863 0.3227649927139282
          -0.8525819778442383 -0.5121170282363892 0.10411199927330017 -0.7093039751052856 -0.6866210103034973 -0.15949800610542297
          -0.59688800573349 -0.7036529779434204 -0.3854840099811554 -0.5208839774131775 -0.6626089811325073 -0.5381720066070557
          -0.4441179931163788 -0.632561981678009 -0.6345270276069641 -0.7485309839248657 -0.6286600232124329 -0.2109210044145584
          -0.6666510105133057 -0.6441680192947388 -0.3749980032444 -0.23240600526332855 -0.5002920031547546 0.8340830206871033
          0.0447469986975193 -0.4186359941959381 0.9070510268211365 -0.44082900881767273 -0.47693198919296265 0.7603989839553833
          -0.2541530132293701 -0.4375689923763275 0.8625190258026123 -0.3382520079612732 -0.5185139775276184 0.7853209972381592
          0.10041099786758423 -0.09948699921369553 0.9899590015411377 -0.09159799665212631 -0.2288379967212677 0.9691460132598877
          0.3427940011024475 0.02626900002360344 0.9390429854393005 0.2625809907913208 -0.07208599895238876 0.9622139930725098
          0.15348200500011444 -0.023799000307917595 0.9878649711608887 0.2323179990053177 0.1374099999666214 0.9628850221633911
          0.1200070008635521 -0.1192919984459877 0.9855800271034241 0.32677000761032104 -0.6186339855194092 0.7145019769668579
          0.45626300573349 -0.5675489902496338 0.6853560209274292 0.38537201285362244 -0.7222200036048889 0.5743569731712341
          0.08840399980545044 -0.37163200974464417 0.9241610169410706 -0.11174699664115906 -0.025947000831365585 0.9933980107307434
          0.006264000199735165 -0.03426700085401535 0.9993929862976074 -0.08250799775123596 -0.26005101203918457 0.9620630145072937
          0.23585399985313416 -0.13661299645900726 0.9621379971504211 0.09344299882650375 -0.18986700475215912 0.9773529767990112
          0.4003230035305023 -0.18589699268341064 0.8973199725151062 0.40418100357055664 -0.40584999322891235 0.8197100162506104
          0.22047799825668335 -0.2933860123157501 0.9302229881286621 -0.0005559999844990671 -0.03276500105857849 0.9994630217552185
          -0.14525599777698517 -0.09768600016832352 0.9845600128173828 0.6154090166091919 -0.6377419829368591 0.4632030129432678
          0.6250209808349609 -0.5399870276451111 0.5637050271034241 0.5163930058479309 -0.6725929975509644 0.530053973197937
          0.570248007774353 -0.7709619998931885 0.2836099863052368 0.6777819991111755 -0.7198650240898132 0.1496870070695877
          0.4867970049381256 -0.8728880286216736 -0.033094000071287155 -0.3062930107116699 -0.4626530110836029 -0.8319470286369324
          0.03711700066924095 -0.21599799394607544 -0.9756879806518555 0.4424700140953064 -0.07506600022315979 -0.8936359882354736
          0.2687250077724457 -0.044137999415397644 -0.9622049927711487 -0.47647199034690857 -0.575901985168457 -0.6643120050430298
          0.48877501487731934 0.00471699982881546 -0.8723970055580139 0.5274879932403564 0.02948799915611744 -0.8490509986877441
          0.16154199838638306 -0.637374997138977 -0.7534300088882446 0.15913499891757965 -0.7430210113525391 -0.6500740051269531
          0.2984730005264282 -0.862496018409729 -0.4086740016937256 0.47595900297164917 -0.8307340145111084 -0.28869301080703735
          0.4880880117416382 -0.6978530287742615 -0.5241870284080505 0.39168599247932434 -0.6207169890403748 -0.6791859865188599
          -0.12482199817895889 -0.3366149961948395 -0.9333329796791077 0.03518500179052353 -0.34917399287223816 -0.9363970160484314
          0.15988700091838837 -0.43190300464630127 -0.8876349925994873 -0.2824440002441406 -0.12383300065994263 -0.9512580037117004
          -0.1788329929113388 -0.06303399801254272 -0.9818580150604248 -0.29437699913978577 -0.26526299118995667 -0.9181380271911621
          -0.19308499991893768 -0.3203220069408417 -0.9274219870567322 -0.30827000737190247 -0.267984002828598 -0.9127730131149292
          -0.110214002430439 -0.13120299577713013 -0.9852100014686584 0.20876799523830414 -0.3065760135650635 -0.9286689758300781
          0.016979999840259552 -0.31485000252723694 -0.9489889740943909 0.2908410131931305 -0.2566080093383789 -0.9217180013656616
          0.42490100860595703 -0.17261900007724762 -0.8886290192604065 0.4858250021934509 -0.13224700093269348 -0.8639940023422241
          0.3989570140838623 -0.19336000084877014 -0.8963509798049927 -0.5562610030174255 -0.42872801423072815 0.7118750214576721
          -0.6617169976234436 -0.28710898756980896 0.6926029920578003 -0.7336959838867188 -0.18702499568462372 0.6532319784164429
          -0.590965986251831 -0.16388200223445892 0.7898740172386169 -0.7747570276260376 -0.4758859872817993 0.4162749946117401
          -0.7987620234489441 -0.26406899094581604 0.54059898853302 -0.8463699817657471 -0.3408850133419037 0.40921398997306824
          -0.8747820258140564 -0.2744329869747162 0.39930298924446106 -0.8232210278511047 -0.4685159921646118 0.3206239938735962
          -0.8578699827194214 -0.4952549934387207 0.1370449960231781 -0.8218259811401367 -0.5591980218887329 -0.10908299684524536
          -0.6268579959869385 -0.6060749888420105 -0.48961400985717773 -0.7850459814071655 -0.54066401720047 -0.30229899287223816
          -0.4938639998435974 -0.35147398710250854 0.7953389883041382 -0.2710689902305603 -0.3955189883708954 0.8775460124015808
          -0.26099899411201477 -0.1284009963274002 0.9567620158195496 -0.025160999968647957 0.03504199907183647 0.9990689754486084
          -0.15991200506687164 -0.021246999502182007 0.9869030117988586 -0.39302000403404236 -0.21692200005054474 0.893576979637146
          0.16844399273395538 0.100272998213768 0.980597972869873 0.12546099722385406 0.10273099690675735 0.9867650270462036
          0.04390700161457062 0.2466839998960495 0.9681010246276855 0.04741600155830383 0.1718059927225113 0.9839890003204346
          0.6239169836044312 -0.1919800043106079 0.7575430274009705 0.5594210028648376 -0.5006890296936035 0.6605749726295471
          -0.07093200087547302 0.06139200180768967 0.9955899715423584 -0.11779999732971191 -0.004046999849379063 0.993028998374939
          -0.061581000685691833 0.16615299880504608 0.9841750264167786 -0.13430799543857574 0.07615099847316742 0.988008975982666
          0.03134499862790108 0.03174100071191788 0.9990040063858032 0.1782660037279129 0.03475499898195267 0.9833679795265198
          0.4024539887905121 -0.07147599756717682 0.9126449823379517 0.47021201252937317 0.1372009962797165 0.8718240261077881
          0.4197089970111847 0.15230099856853485 0.89478999376297 0.33635199069976807 0.13471999764442444 0.9320499897003174
          0.5984709858894348 0.10743000358343124 0.7939090132713318 -0.13269799947738647 -0.004567000083625317 0.9911460280418396
          0.006697999779134989 0.1726830005645752 0.9849550127983093 0.7512649893760681 -0.37790700793266296 0.5410979986190796
          0.7615860104560852 -0.45082101225852966 0.46556198596954346 0.7103480100631714 -0.5959320068359375 0.3745270073413849
          0.7520549893379211 -0.15072399377822876 0.641635000705719 0.7465490102767944 -0.5636199712753296 0.35354799032211304
          0.8575029969215393 -0.415351003408432 0.303600013256073 0.5972499847412109 -0.8001869916915894 -0.054719001054763794
          0.8014469742774963 -0.5979560017585754 0.011432000435888767 0.8958269953727722 -0.39619699120521545 0.20130200684070587
          -0.662684977054596 -0.5046489834785461 -0.5533329844474792 -0.22501300275325775 -0.29172199964523315 -0.9296600222587585
          -0.5968989729881287 -0.43438100814819336 -0.6745550036430359 -0.4846549928188324 -0.36929601430892944 -0.7929250001907349
          -0.4249880015850067 -0.284170001745224 -0.8594369888305664 -0.1407579928636551 -0.13150499761104584 -0.9812710285186768
          0.06414800137281418 0.008578999899327755 -0.9979040026664734 0.3771969974040985 0.03427400067448616 -0.9254990220069885
          0.38400301337242126 0.043088000267744064 -0.9223260283470154 0.3497700095176697 -0.12339700013399124 -0.9286739826202393
          0.26001501083374023 -0.6047670245170593 -0.7527610063552856 0.39373698830604553 -0.39907699823379517 -0.8280749917030334
          0.24269999563694 -0.4651319980621338 -0.8513219952583313 0.6824039816856384 -0.6821539998054504 -0.2626599967479706
          0.8154320120811462 -0.45956000685691833 -0.3519589900970459 0.6854550242424011 -0.45483800768852234 -0.5685719847679138
          0.5461980104446411 -0.3756589889526367 -0.7486979961395264 -0.14299499988555908 -0.2739950120449066 -0.9510409832000732
          0.21470999717712402 -0.22515399754047394 -0.9503710269927979 0.04954500123858452 -0.15703600645065308 -0.9863489866256714
          0.35654500126838684 -0.2548750042915344 -0.8988410234451294 -0.22595499455928802 -0.05784599855542183 -0.972419023513794
          -0.2216390073299408 -0.19068700075149536 -0.9563030004501343 -0.3488590121269226 -0.21089200675487518 -0.9131379723548889
          -0.24486799538135529 -0.24858100712299347 -0.9371489882469177 -0.13709400594234467 -0.3892419934272766 -0.9108759760856628
          -0.1831279993057251 -0.38970398902893066 -0.9025490283966064 -0.111115001142025 -0.48446300625801086 -0.8677260279655457
          -0.06413500010967255 -0.3713909983634949 -0.9262589812278748 0.42844700813293457 -0.3128890097141266 -0.8476639986038208
          0.19291800260543823 -0.4841710031032562 -0.8534409999847412 0.07527899742126465 -0.485478013753891 -0.8710020184516907
          0.3842250108718872 -0.31658801436424255 -0.8672620058059692 0.2588689923286438 -0.22525300085544586 -0.9392799735069275
          0.14373500645160675 -0.35535499453544617 -0.9236140251159668 0.23699499666690826 -0.3658680021762848 -0.8999850153923035
          -0.6305099725723267 -0.07672099769115448 0.7723810076713562 -0.38391199707984924 -0.09176799654960632 0.91879802942276
          -0.5309590101242065 -0.06043799966573715 0.845238983631134 -0.8233309984207153 -0.43145400285720825 0.3687469959259033
          -0.6778929829597473 -0.18034200370311737 0.7126970291137695 -0.7837089896202087 -0.19846099615097046 0.5885689854621887
          -0.8738570213317871 -0.18530799448490143 0.4494830071926117 -0.9019520282745361 -0.2943600118160248 0.31596601009368896
          -0.9150099754333496 -0.18633200228214264 0.3578230142593384 -0.8986309766769409 -0.10395699739456177 0.42621201276779175
          -0.8349239826202393 -0.450560986995697 0.3160650134086609 -0.883554995059967 -0.4231620132923126 0.20066200196743011
          -0.8710359930992126 -0.4884459972381592 -0.0521249994635582 -0.8341479897499084 -0.4325779974460602 -0.3421599864959717
          -0.9109060168266296 -0.4011240005493164 -0.09669499844312668 -0.3739109933376312 0.05473000183701515 0.9258480072021484
          -0.11320500075817108 0.1252959966659546 0.9856399893760681 -0.18695299327373505 0.19517500698566437 0.962785005569458
          -0.08098000288009644 0.27987200021743774 0.9566159844398499 -0.2796329855918884 0.26650500297546387 0.9223780035972595
          0.7391660213470459 0.12249500304460526 0.6622909903526306 0.7552019953727722 0.02949400059878826 0.6548280119895935
          0.06947799772024155 0.19678999483585358 0.9779809713363647 0.17655199766159058 0.3967429995536804 0.9007909893989563
          0.04334099963307381 0.3895550072193146 0.9199830293655396 -0.14971700310707092 0.2583020031452179 0.9543920159339905
          -0.2557780146598816 0.07498499751091003 0.9638230204582214 0.27765899896621704 0.33880600333213806 0.8989530205726624
          0.3169560134410858 0.2989870011806488 0.9000809788703918 0.5752909779548645 0.325780987739563 0.7502710223197937
          0.5303710103034973 0.3357119858264923 0.7784619927406311 0.4876500070095062 0.3872399926185608 0.782459020614624
          0.6093890070915222 0.3735789954662323 0.6993449926376343 0.6661220192909241 0.3214629888534546 0.673009991645813
          -0.19267000257968903 0.10617800056934357 0.9755020141601562 -0.14764800667762756 0.1980839967727661 0.9690009951591492
          0.8512049913406372 -0.1280840039253235 0.508965015411377 0.8054530024528503 -0.40678098797798157 0.4310159981250763
          0.8473010063171387 -0.13436299562454224 0.5138360261917114 0.8096089959144592 -0.40711700916290283 0.42283499240875244
          0.8321800231933594 -0.34510499238967896 0.4340269863605499 0.8378440141677856 0.14951899647712708 0.52503502368927
          0.8032090067863464 0.19228099286556244 0.5638110041618347 0.8821619749069214 -0.23013900220394135 0.4108850061893463
          0.9363399744033813 -0.11486399918794632 0.3317730128765106 0.9525279998779297 -0.2901729941368103 0.0921429991722107
          0.9002990126609802 -0.40870600938796997 -0.14973899722099304 0.9509490132331848 -0.06648500263690948 0.3021189868450165
          -0.7948470115661621 -0.38116198778152466 -0.4721589982509613 -0.6259589791297913 -0.34492701292037964 -0.6994289755821228
          -0.46499499678611755 -0.20072300732135773 -0.8622589707374573 -0.2362940013408661 -0.09578300267457962 -0.9669489860534668
          0.11549600213766098 -0.07637699693441391 -0.9903669953346252 -0.19327999651432037 -0.05642399936914444 -0.9795200228691101
          0.6208450198173523 -0.03379200026392937 -0.783204972743988 0.6295260190963745 -0.13943099975585938 -0.7643659710884094
          0.8786839842796326 -0.24100999534130096 -0.41210299730300903 0.9655280113220215 -0.08407100290060043 -0.24634799361228943
          0.7559009790420532 -0.24201400578022003 -0.6083120107650757 0.7420499920845032 -0.08878500014543533 -0.6644390225410461
          -0.13387100398540497 -0.1453399956226349 -0.9802830219268799 0.3449130058288574 -0.1073710024356842 -0.9324730038642883
          0.22071899473667145 -0.074924997985363 -0.9724550247192383 0.06156500056385994 -0.07102999836206436 -0.9955719709396362
          -0.05383199825882912 -0.11287199705839157 -0.9921500086784363 0.43532198667526245 -0.055431999266147614 -0.8985670208930969
          -0.21037399768829346 -0.18288299441337585 -0.96036297082901 0.002601000014692545 -0.5368769764900208 -0.8436570167541504