<?xml version="1.0"?>
<VTKFile type="PolyData" version="0.1" byte_order="LittleEndian" header_type="UInt32" compressor="vtkZLibDataCompressor">
  <PolyData>
    <Piece NumberOfPoints="1111" NumberOfVerts="0" NumberOfLines="0" NumberOfStrips="0" NumberOfPolys="2218">
      <PointData Normals="Normals">
        <DataArray type="Float32" Name="Normals" NumberOfComponents="3" format="ascii" RangeMin="0.9999992840585232" RangeMax="1.000000746584471">
          -0.7432299852371216 -0.6028249859809875 0.29019299149513245 -0.6350200176239014 -0.5963379740715027 0.49105000495910645
          -0.8112779855728149 -0.4852449893951416 0.3261359930038452 -0.8532819747924805 -0.5006960034370422 0.14564800262451172
          -0.5124750137329102 -0.7223510146141052 0.46430298686027527 -0.6704540252685547 -0.7099890112876892 0.21542499959468842
          -0.39406201243400574 -0.8431140184402466 0.36588799953460693 -0.6472910046577454 -0.5497170090675354 0.5280399918556213
          -0.4035849869251251 -0.5921170115470886 0.6975070238113403 -0.37922999262809753 -0.5968430042266846 0.7070800065994263
          -0.9270229935646057 -0.35088399052619934 0.13232199847698212 -0.7430809736251831 -0.2903279960155487 0.6029430031776428
          -0.9102460145950317 -0.2661220133304596 0.31722399592399597 -0.8690000176429749 -0.4867820143699646 0.08877599984407425
          -0.1830420047044754 -0.772288978099823 0.6083289980888367 -0.0831110030412674 -0.8734509944915771 0.4797680079936981
          -0.7319279909133911 -0.6800619959831238 0.042385999113321304 -0.21929499506950378 -0.9370070099830627 0.27189600467681885
          -0.41154199838638306 -0.9050160050392151 0.10760200023651123 0.03654300048947334 -0.927141010761261 0.3729259967803955
          -0.5048249959945679 -0.5146340131759644 0.6930390000343323 -0.2359990030527115 -0.6143890023231506 0.7528809905052185
          -0.14521099627017975 -0.6621909737586975 0.735131025314331 -0.03094100020825863 -0.6811090111732483 0.7315279841423035
          -0.92084801197052 -0.38937699794769287 0.020635999739170074 -0.9737889766693115 -0.2259179949760437 0.026388000696897507
          -0.9868289828300476 -0.12539100646972656 0.10220299661159515 -0.4648610055446625 -0.3631789982318878 0.8074679970741272
          -0.5248550176620483 -0.2168090045452118 0.8231170177459717 -0.7170090079307556 -0.027442999184131622 0.6965230107307434
          -0.9216920137405396 -0.05059099942445755 0.38460901379585266 -0.8051949739456177 -0.5923029780387878 -0.028960999101400375
          0.20120300352573395 -0.7773780226707458 0.5959870219230652 0.3019919991493225 -0.8165540099143982 0.49197500944137573
          -0.5093880295753479 -0.8560720086097717 -0.08754300326108932 0.15143300592899323 -0.9543799757957458 0.2573480010032654
          -0.023145999759435654 -0.9880539774894714 0.15236300230026245 -0.1502380073070526 -0.9885690212249756 -0.012637999840080738
          0.3978540003299713 -0.8396779894828796 0.3696649968624115 -0.27094799280166626 -0.5609830021858215 0.7822309732437134
          0.2418150007724762 -0.6808549761772156 0.6913480162620544 0.03762099891901016 -0.6719059944152832 0.7396799921989441
          -0.9653130173683167 -0.25828298926353455 -0.03821299970149994 -0.903901994228363 -0.4206179976463318 -0.07773199677467346
          -0.799685001373291 -0.5992980003356934 -0.03669099882245064 -0.9977089762687683 -0.032839998602867126 -0.05913899838924408
          -0.9875620007514954 0.10778400301933289 0.1144699975848198 -0.08650799840688705 -0.4851889908313751 0.8701189756393433
          -0.19259700179100037 -0.2959029972553253 0.9355999827384949 -0.4002859890460968 -0.09208899736404419 0.9117509722709656
          -0.872967004776001 0.12543299794197083 0.4713749885559082 -0.6311889886856079 0.012234999798238277 0.7755330204963684
          -0.6586819887161255 -0.7399870157241821 -0.13622699677944183 0.469184011220932 -0.6287389993667603 0.620123028755188
          0.5478230118751526 -0.6541579961776733 0.5215049982070923 -0.3580709993839264 -0.9123640060424805 -0.19843700528144836
          -0.06622699648141861 -0.9900379776954651 -0.12425199896097183 0.2345000058412552 -0.9638670086860657 0.12637600302696228
          0.476747989654541 -0.8587070107460022 0.18797099590301514 0.1762789934873581 -0.9842190146446228 -0.015461999922990799
          0.704060971736908 -0.6566460132598877 0.2703950107097626 0.32273998856544495 -0.5180649757385254 0.7921159863471985
          -0.8875449895858765 -0.39563000202178955 -0.23609499633312225 -0.9883779883384705 -0.12146200239658356 -0.09141500294208527
          -0.7092409729957581 -0.6958640217781067 -0.11292099952697754 -0.8257409930229187 -0.5314469933509827 -0.18898899853229523
          -0.5573930144309998 -0.8184859752655029 -0.1392589956521988 -0.9923110008239746 0.10960499942302704 0.05750099942088127
          -0.9992300271987915 -0.016666000708937645 -0.03553000092506409 -0.9410979747772217 0.23716899752616882 0.241007998585701
          0.20440100133419037 -0.3646639883518219 0.9084270000457764 -0.02332100085914135 -0.12504799664020538 0.991877019405365
          0.20997099578380585 -0.2693580090999603 0.9398720264434814 -0.1855670064687729 0.006320000160485506 0.9826110005378723
          -0.8422269821166992 0.14251400530338287 0.5199450254440308 -0.48290500044822693 0.0326169990003109 0.87506502866745
          -0.809935986995697 0.11040499806404114 0.5760329961776733 -0.7216920256614685 0.0682779997587204 0.6888390183448792
          0.581508994102478 -0.42621898651123047 0.6929540038108826 0.7020779848098755 -0.41127100586891174 0.5813289880752563
          0.7199069857597351 -0.5300040245056152 0.4481410086154938 -0.18593299388885498 -0.9400060176849365 -0.2860400080680847
          0.0917460024356842 -0.957315981388092 -0.2740960121154785 0.25570398569107056 -0.9562209844589233 -0.14232900738716125
          0.4427340030670166 -0.8958380222320557 0.0382159985601902 0.6718630194664001 -0.7382479906082153 0.059905000030994415
          0.5158910155296326 -0.8537189960479736 -0.07085499912500381 0.846418023109436 -0.4529399871826172 0.2800379991531372
          0.9130489826202393 -0.39598798751831055 0.09764499962329865 0.8084160089492798 -0.5886080265045166 -0.002068999921903014
          0.48414599895477295 -0.29089000821113586 0.8252189755439758 -0.7293840050697327 -0.616117000579834 -0.29732000827789307
          -0.7317699790000916 -0.5029550194740295 -0.4599449932575226 -0.6841909885406494 -0.6108270287513733 -0.39846399426460266
          -0.9371399879455566 -0.23300999402999878 -0.25975900888442993 -0.8109899759292603 -0.36528000235557556 -0.45701900124549866
          -0.9832710027694702 -0.08281499892473221 -0.16223399341106415 -0.5801290273666382 -0.7796919941902161 -0.2356480062007904
          -0.3585369884967804 -0.911408007144928 -0.20195800065994263 -0.9817950129508972 0.026440000161528587 0.1880970001220703
          -0.9442350268363953 0.09848500043153763 0.3142000138759613 -0.9092389941215515 0.22174300253391266 0.3522990047931671
          -0.9957669973373413 -0.08143600076436996 0.04262299835681915 0.3153260052204132 -0.12580999732017517 0.9406070113182068
          0.24973100423812866 0.0021810000762343407 0.9683129787445068 -0.27835801243782043 0.1207989975810051 0.9528509974479675
          0.10217700153589249 0.06388799846172333 0.9927129745483398 -0.7906659841537476 0.13708600401878357 0.5967029929161072
          -0.6081429719924927 0.15915299952030182 0.7777100205421448 -0.8674650192260742 0.1521490067243576 0.47366100549697876
          0.7100499868392944 -0.272489994764328 0.6492909789085388 0.8225529789924622 -0.36573100090026855 0.43548598885536194
          0.8641430139541626 -0.1854570060968399 0.46782800555229187 0.8637909889221191 -0.2705790102481842 0.42503100633621216
          -0.030866999179124832 -0.9511129856109619 -0.3072980046272278 0.21388700604438782 -0.9284380078315735 -0.30373701453208923
          0.37132999300956726 -0.8811720013618469 -0.2926599979400635 0.4216189980506897 -0.7990400195121765 -0.4286870062351227
          0.7181119918823242 -0.6921830177307129 -0.07209700345993042 0.6196669936180115 -0.7412109971046448 -0.258105993270874
          0.9228060245513916 -0.3035059869289398 0.23730599880218506 0.9350100159645081 -0.3544059991836548 0.012360000051558018
          0.9565320014953613 -0.2171339988708496 0.19468000531196594 0.9522619843482971 -0.2957659959793091 0.07563100010156631
          0.859300971031189 -0.5025860071182251 -0.0949150025844574 0.7646359801292419 -0.59614497423172 -0.24483199417591095
          0.5288919806480408 -0.09830600023269653 0.8429759740829468 -0.42882201075553894 -0.8005890250205994 -0.41853100061416626
          -0.5368779897689819 -0.7115960121154785 -0.4532029926776886 -0.43796199560165405 -0.6762650012969971 -0.5923299789428711
          -0.5929080247879028 -0.5140590071678162 -0.6198409795761108 -0.8857979774475098 -0.1924789994955063 -0.42227301001548767
          -0.6429200172424316 -0.4336560070514679 -0.6313459873199463 -0.9943869709968567 -0.10144499689340591 -0.03003999963402748
          -0.9897779822349548 -0.038008999079465866 -0.13745999336242676 -0.9312940239906311 -0.03109000064432621 -0.3629390001296997
          -0.9055460095405579 -0.07948900014162064 -0.41673600673675537 -0.1670529991388321 -0.9418439865112305 -0.2915880084037781
          -0.9228230118751526 0.05723699927330017 0.3809489905834198 -0.9916170239448547 -0.0625159963965416 0.11308199912309647
          -0.905788004398346 0.1916539967060089 0.3779110014438629 -0.9927240014076233 -0.08671999722719193 -0.08353699743747711
          0.6449909806251526 -0.04281599819660187 0.7629899978637695 0.4041750133037567 -0.008740000426769257 0.9146400094032288
          -0.0881199985742569 0.13666699826717377 0.9866899847984314 -0.634581983089447 0.21919600665569305 0.7411199808120728
          -0.5321940183639526 0.23919899761676788 0.812129020690918 0.229420006275177 -0.000048999998398358 0.9733279943466187
          -0.17463800311088562 0.14263899624347687 0.9742460250854492 -0.015661999583244324 0.127578005194664 0.9917050004005432
          -0.8226249814033508 0.2248149961233139 0.5222520232200623 0.751941978931427 -0.14400599896907806 0.6433079838752747
          0.8455820083618164 -0.04311399906873703 0.5321009755134583 0.9219610095024109 -0.1169470027089119 0.36920401453971863
          0.21108399331569672 -0.8993520140647888 -0.3828960061073303 0.33438000082969666 -0.7266139984130859 -0.6001859903335571
          0.6397389769554138 -0.5874239802360535 -0.49564799666404724 0.6213279962539673 -0.6713939905166626 -0.4039570093154907
          0.9323650002479553 -0.3603770136833191 -0.028697999194264412 0.954774022102356 -0.282368004322052 -0.09313800185918808
          0.9544699788093567 -0.2969290018081665 0.02865299955010414 0.9724630117416382 -0.2194730043411255 0.078405000269413
          0.9667249917984009 -0.09668800234794617 0.23684099316596985 0.8726490139961243 -0.43084999918937683 -0.2298949956893921
          -0.2742899954319 -0.7563959956169128 -0.5938259959220886 -0.009854000061750412 -0.8304250240325928 -0.5570430159568787
          -0.09567300230264664 -0.736935019493103 -0.6691589951515198 -0.338144987821579 -0.6182479858398438 -0.709526002407074
          -0.8287889957427979 -0.10677900165319443 -0.549278974533081 -0.6515169739723206 -0.36878299713134766 -0.6629670262336731
          -0.37940099835395813 -0.5768020153045654 -0.7234330177307129 -0.9785839915275574 -0.09564699977636337 -0.18227599561214447
          -0.988165020942688 -0.06956800073385239 -0.13671299815177917 -0.8239319920539856 -0.04463199898600578 -0.5649279952049255
          -0.7313989996910095 -0.04381300136446953 -0.6805409789085388 -0.7310000061988831 -0.16586199402809143 -0.6619129776954651
          -0.8914120197296143 -0.17626899480819702 -0.4175100028514862 -0.7986819744110107 0.2738560140132904 0.5358269810676575
          -0.9669280052185059 -0.029690999537706375 0.2533150017261505 -0.8837910294532776 0.07835400104522705 0.46127501130104065
          -0.8127689957618713 0.22394299507141113 0.5378249883651733 -0.9944750070571899 -0.06520000100135803 0.08226600289344788
          0.6109139919281006 0.0008520000264979899 0.7916970252990723 -0.2728489935398102 0.20945300161838531 0.938979983329773
          -0.5979629755020142 0.27244600653648376 0.7537990212440491 0.44456300139427185 0.003976999782025814 0.8957390189170837
          0.05249999836087227 0.06265600025653839 0.9966530203819275 -0.217849001288414 0.2459390014410019 0.9444869756698608
          0.814041018486023 0.011435000225901604 0.5806949734687805 0.9421420097351074 0.0013310000067576766 0.33521100878715515
          0.17187300324440002 -0.7226539850234985 -0.6694999933242798 0.357124000787735 -0.6381270289421082 -0.6820970177650452
          0.5297060012817383 -0.6171839833259583 -0.5818039774894714 0.866159975528717 -0.3862369954586029 -0.31715500354766846
          0.7701870203018188 -0.47047701478004456 -0.43065398931503296 0.6973890066146851 -0.47992798686027527 -0.5322750210762024
          0.9679160118103027 -0.2512570023536682 -0.0030690000858157873 0.9365149736404419 -0.21703499555587769 -0.27538400888442993
          0.9779549837112427 -0.19571800529956818 -0.07278700172901154 0.9828789830207825 -0.11749699711799622 -0.14192500710487366
          0.9901790022850037 -0.1382019966840744 0.021107999607920647 0.99167799949646 -0.04386100172996521 0.12103799730539322
          -0.08090300112962723 -0.7091299891471863 -0.7004209756851196 -0.6797559857368469 -0.19156700372695923 -0.7079790234565735
          -0.32510998845100403 -0.5498999953269958 -0.7693589925765991 -0.5161579847335815 -0.3988009989261627 -0.7579830288887024
          -0.1734510064125061 -0.6186619997024536 -0.7662709951400757 -0.9967589974403381 -0.07688199728727341 0.02368300035595894
          -0.9990710020065308 -0.04052399843931198 0.014651999808847904 -0.9884660243988037 -0.09491000324487686 -0.11801300197839737
          -0.701790988445282 -0.1464489996433258 -0.6971669793128967 -0.6622539758682251 -0.0740559995174408 -0.7456110119819641
          -0.5459439754486084 -0.08484300225973129 -0.8335149884223938 -0.5819640159606934 0.023646000772714615 -0.812870979309082
          -0.4689120054244995 -0.022148000076413155 -0.8829669952392578 -0.670527994632721 -0.057002000510692596 -0.7396910190582275
          -0.5843160152435303 -0.13837400078773499 -0.799642026424408 -0.7029200196266174 -0.2061070054769516 -0.6807519793510437
          -0.5476279854774475 -0.17974400520324707 -0.8171870112419128 -0.8956019878387451 -0.17752699553966522 -0.40789899230003357
          -0.9814460277557373 0.007079000119119883 0.1916079968214035 -0.9922980070114136 -0.03875499963760376 0.11765900254249573
          -0.7969239950180054 0.1668419986963272 0.5805820226669312 -0.788332998752594 0.10103999823331833 0.6068950295448303
          -0.9386429786682129 0.05242199823260307 0.3408829867839813 -0.8045899868011475 0.22830699384212494 0.5481879711151123
          0.7077940106391907 0.03408399969339371 0.7055960297584534 -0.51835697889328 0.30809199810028076 0.7977380156517029
          -0.7268030047416687 0.2940489947795868 0.6207190155982971 0.1858779937028885 0.1305059939622879 0.9738669991493225
          0.5170549750328064 0.1001719981431961 0.8500699996948242 0.2156350016593933 0.26211100816726685 0.94063800573349
          -0.38234201073646545 0.36321699619293213 0.8496400117874146 -0.14067399501800537 0.41614601016044617 0.8983510136604309
          0.8018069863319397 0.05938100069761276 0.5946249961853027 0.9659320116043091 0.1360500007867813 0.22014999389648438
          0.9966179728507996 -0.004728999920189381 0.08203200250864029 0.9956200122833252 0.05119699984788895 0.07822299748659134
          0.03751400113105774 -0.6358169913291931 -0.7709280252456665 0.5364699959754944 -0.5070769786834717 -0.6745910048484802
          0.31294700503349304 -0.5215960144996643 -0.7937269806861877 0.07593599706888199 -0.5302950143814087 -0.844406008720398
          0.8518379926681519 -0.3329940140247345 -0.40433499217033386 0.7819330096244812 -0.29607999324798584 -0.5485590100288391
          0.9720069766044617 -0.09089499711990356 -0.21665999293327332 0.9981269836425781 -0.009318999946117401 -0.06046999990940094
          0.9956349730491638 0.014020999893546104 -0.09227299690246582 -0.38698500394821167 -0.3368090093135834 -0.8583719730377197
          -0.2056799978017807 -0.5023970007896423 -0.8398169875144958 -0.9891589879989624 -0.008728999644517899 0.14658699929714203
          -0.9968760013580322 -0.0592150017619133 -0.05226299911737442 -0.9010649919509888 -0.13060900568962097 -0.41354900598526
          -0.5660229921340942 -0.20849700272083282 -0.7975890040397644 -0.4751189947128296 -0.20342999696731567 -0.8560829758644104
          -0.41370299458503723 -0.1954209953546524 -0.8891909718513489 -0.47346198558807373 -0.08270200341939926 -0.8769230246543884
          -0.2824530005455017 -0.18908099830150604 -0.9404619932174683 -0.30341601371765137 -0.1771710067987442 -0.9362419843673706
          -0.31362301111221313 0.008155999705195427 -0.9495130181312561 -0.3773910105228424 0.1690180003643036 -0.9104989767074585
          -0.325082004070282 0.1621289998292923 -0.9316840171813965 -0.060214001685380936 -0.030883999541401863 -0.9977080225944519
          -0.3406890034675598 -0.2059749960899353 -0.9173359870910645 -0.09324400126934052 0.1948550045490265 -0.97639000415802
          -0.761913001537323 -0.17903199791908264 -0.6224430203437805 -0.568638026714325 -0.23246300220489502 -0.7890570163726807
          -0.6668969988822937 0.13800600171089172 0.7322580218315125 -0.787913978099823 0.17336900532245636 0.5908759832382202
          -0.5975729823112488 0.11766800284385681 0.7931339740753174 -0.9349460005760193 0.04549400135874748 0.35186100006103516
          -0.8326820135116577 0.06978199630975723 0.5493360161781311 -0.5205559730529785 0.2348400056362152 0.8208969831466675
          -0.4941610097885132 0.3799690008163452 0.7819390296936035 0.5574049949645996 0.17764100432395935 0.8110139966011047
          0.27524900436401367 0.34046798944473267 0.8990659713745117 0.06614299863576889 0.45998701453208923 0.8854590058326721
          -0.007319000083953142 0.5131360292434692 0.8582760095596313 -0.10430300235748291 0.4449689984321594 0.8894510269165039
          0.8648660182952881 0.15707899630069733 0.4767940044403076 0.6732680201530457 0.23585399985313416 0.7007730007171631
          0.9920889735221863 0.09808299690485 -0.07835300266742706 0.9133359789848328 0.2435770034790039 0.326323002576828
          0.9957749843597412 0.07771699875593185 -0.048920001834630966 0.9809669852256775 0.13446100056171417 0.14008300006389618
          0.8687189817428589 0.3315970003604889 0.36792799830436707 0.7969719767570496 0.26767098903656006 0.541467010974884
          0.9936720132827759 0.08688999712467194 -0.07117900252342224 0.9910150170326233 0.11133900284767151 -0.07411199808120728
          0.3266350030899048 -0.4674240052700043 -0.8214769959449768 -0.02386000007390976 -0.43926700949668884 -0.8980399966239929
          0.3815639913082123 -0.3751789927482605 -0.8447780013084412 0.5862849950790405 -0.24633300304412842 -0.7717450261116028
          0.9562429785728455 -0.1131569966673851 -0.2698040008544922 0.4722749888896942 -0.2454250007867813 -0.8465949892997742
          0.780676007270813 -0.12588000297546387 -0.6121270060539246 0.8967940211296082 -0.1416739970445633 -0.41915300488471985
          0.9963930249214172 0.06424500048160553 -0.05544799938797951 0.9942820072174072 0.09825000166893005 -0.0418349988758564
          -0.3263219892978668 -0.33010199666023254 -0.8857460021972656 -0.9882810115814209 -0.013907000422477722 0.1520089954137802
          -0.9735659956932068 -0.07499299943447113 -0.21574200689792633 -0.988506019115448 -0.07200600206851959 -0.13293300569057465
          -0.996491014957428 -0.02855299971997738 0.07867799699306488 -0.9716410040855408 -0.06650999933481216 -0.22691300511360168
          -0.8886060118675232 -0.16147300601005554 -0.42930901050567627 -0.751865029335022 -0.17471599578857422 -0.6357470154762268
          -0.7237399816513062 -0.20559599995613098 -0.6587349772453308 -0.2884880006313324 -0.34335899353027344 -0.8938009738922119
          -0.07900799810886383 -0.32175299525260925 -0.9435210227966309 -0.10539299994707108 -0.1483609974384308 -0.9833009839057922
          -0.2685199975967407 -0.06357699632644653 -0.9611740112304688 -0.17517399787902832 -0.22078000009059906 -0.9594640135765076
          0.016143999993801117 -0.23967699706554413 -0.9707189798355103 -0.13298299908638 0.03911300003528595 -0.9903460144996643
          -0.07737500220537186 0.24657100439071655 -0.966031014919281 -0.1856359988451004 0.16497400403022766 -0.9686710238456726
          0.001976999919861555 -0.2346390038728714 -0.9720810055732727 0.19653800129890442 -0.13198399543762207 -0.971572995185852
          0.1870100051164627 0.05208799988031387 -0.9809759855270386 -0.332956999540329 -0.2759209871292114 -0.9016690254211426
          0.2725540101528168 0.28023800253868103 -0.9204239845275879 0.23547999560832977 0.23277799785137177 -0.9435909986495972
          -0.6239749789237976 -0.2248850017786026 -0.748386025428772 -0.24068200588226318 0.16837400197982788 0.9558879733085632
          -0.4700230062007904 0.13246700167655945 0.8726570010185242 -0.6644539833068848 0.09817200154066086 0.7408530116081238
          -0.9136409759521484 0.04739399999380112 0.4037500023841858 -0.9659759998321533 0.005280000157654285 0.25857698917388916
          -0.8718839883804321 0.06624999642372131 0.48521000146865845 -0.36441099643707275 0.34522899985313416 0.8648819923400879
          -0.3266249895095825 0.2840540111064911 0.9014589786529541 -0.22529999911785126 0.24519400298595428 0.9429320096969604
          0.3421210050582886 0.44155800342559814 0.8294450044631958 0.26662999391555786 0.56461501121521 0.7811009883880615
          0.27548301219940186 0.47224900126457214 0.8373110294342041 -0.01423100009560585 0.31619200110435486 0.948589026927948
          0.2647069990634918 0.34891700744628906 0.8989920020103455 0.8048750162124634 0.3164390027523041 0.5020390152931213
          0.6560099720954895 0.4343149960041046 0.617268979549408 0.9901340007781982 0.1298229992389679 -0.05272899940609932
          0.9994379878044128 -0.0030739998910576105 -0.03338100016117096 0.9970030188560486 0.020438000559806824 0.07462099939584732
          0.8995169997215271 0.09388799965381622 0.42667800188064575 0.5448690056800842 0.5039719939231873 0.6701719760894775
          0.531794011592865 0.34746599197387695 0.7723100185394287 0.42185699939727783 0.25533199310302734 0.869966983795166
          0.5502669811248779 0.138714000582695 0.823386013507843 0.7677059769630432 0.11845500022172928 0.6297590136528015
          0.07866299897432327 -0.2775839865207672 -0.957476019859314 0.35794100165367126 -0.257627010345459 -0.8974999785423279
          0.35022100806236267 -0.24895800650119781 -0.9029759764671326 0.9424980282783508 -0.02264299988746643 -0.3334450125694275
          0.34768199920654297 -0.2457679957151413 -0.9048290252685547 0.37468698620796204 -0.1816049963235855 -0.9091910123825073
          0.33187898993492126 -0.18952099978923798 -0.9240880012512207 0.6480460166931152 -0.14105400443077087 -0.7484260201454163
          0.8846849799156189 -0.011320999823510647 -0.46605199575424194 0.7595720291137695 0.011339999735355377 -0.6503239870071411
          0.5394719839096069 -0.04300399869680405 -0.8409050107002258 0.973954975605011 0.10015299916267395 -0.20342299342155457
          0.9962459802627563 0.04649699851870537 -0.07301700115203857 -0.9778509736061096 -0.05195600166916847 -0.20274999737739563
          -0.9948329925537109 -0.04784100130200386 0.08954600244760513 -0.9356189966201782 -0.15518899261951447 -0.31707000732421875
          -0.9878860116004944 -0.10703399777412415 -0.11236199736595154 -0.7298830151557922 -0.2765069901943207 -0.6251519918441772
          -0.620173990726471 -0.24946799874305725 -0.743740975856781 0.1697230041027069 -0.015343000181019306 -0.985372006893158
          0.07487600296735764 0.11155000329017639 -0.9909340143203735 0.41211700439453125 0.14237700402736664 -0.8999379873275757
          -0.2228260040283203 -0.3498159945011139 -0.9099329710006714 0.1369819939136505 -0.3523780107498169 -0.9257779717445374
          0.3806520104408264 -0.25710201263427734 -0.8882579803466797 0.4328019917011261 -0.09622900187969208 -0.8963379859924316
          0.48561298847198486 0.14854399859905243 -0.8614609837532043 -0.5362380146980286 -0.28236401081085205 -0.7954360246658325
          0.6611819863319397 0.18250900506973267 -0.7276870012283325 0.5634279847145081 0.26298901438713074 -0.7831889986991882
          0.1099649965763092 0.1404629945755005 0.983959972858429 0.14402900636196136 -0.0071840002201497555 0.9895470142364502
          0.1237649992108345 0.22330500185489655 0.966858983039856 -0.3306719958782196 0.03286699950695038 0.9431729912757874
          -0.5763580203056335 0.0335719995200634 0.8165069818496704 -0.8121470212936401 0.01851700060069561 0.5831590294837952
          -0.9499670267105103 -0.06484600156545639 0.3055439889431 0.33570700883865356 0.36107900738716125 0.8700129985809326
          0.2421649992465973 0.2801850140094757 0.9288989901542664 0.9889100193977356 -0.11769100278615952 0.09058699756860733
          0.9961959719657898 -0.049566999077796936 -0.0716719999909401 0.9949160218238831 -0.09950800240039825 -0.015464999713003635
          0.9535369873046875 -0.030253000557422638 0.29975399374961853 0.7799320220947266 0.021031999960541725 0.6255109906196594
          0.6914269924163818 0.0939679965376854 0.7163090109825134 0.3103410005569458 0.13028700649738312 0.9416549801826477
          0.4596349895000458 0.09155300259590149 0.8833760023117065 0.8249059915542603 0.09887199848890305 -0.5565549731254578
          0.9017469882965088 0.10752800107002258 -0.4186779856681824 0.96527099609375 0.05793000012636185 -0.25474798679351807
          0.9283580183982849 0.07180699706077576 -0.3646849989891052 0.9649490118026733 -0.06046000123023987 -0.25537899136543274
          -0.9821599721908569 -0.14884600043296814 0.11492300033569336 -0.9615219831466675 -0.2105579972267151 -0.17646700143814087
          -0.8651469945907593 -0.22271999716758728 -0.4493510127067566 -0.41485100984573364 -0.39168500900268555 -0.8212680220603943
          -0.5918689966201782 -0.4484409987926483 -0.6697689890861511 -0.76637202501297 -0.3496110141277313 -0.5389299988746643
          -0.8719189763069153 -0.3020240068435669 -0.3854059875011444 -0.07823500037193298 -0.4403670132160187 -0.8944029808044434
          0.526757001876831 -0.338687002658844 -0.7796270251274109 0.25839900970458984 -0.4115869998931885 -0.8739719986915588
          0.6231189966201782 -0.2587760090827942 -0.7380769848823547 0.6776670217514038 -0.1349720060825348 -0.7228760123252869
          0.6934159994125366 0.048548001796007156 -0.7189000248908997 0.7729139924049377 0.17012999951839447 -0.6112769842147827
          0.1424500048160553 -0.04394200071692467 0.9888259768486023 -0.13853700459003448 0.01385200023651123 0.9902600049972534
          0.5110970139503479 -0.05291400104761124 0.8578929901123047 0.2584039866924286 -0.10682400315999985 0.9601119756698608
          -0.4102349877357483 0.08759000152349472 0.9077640175819397 -0.7136319875717163 -0.0602170005440712 0.6979269981384277
          -0.550445020198822 -0.04500899836421013 0.8336570262908936 -0.87260901927948 -0.0919170007109642 0.4796920120716095
          -0.9312490224838257 -0.17839199304580688 0.3177269995212555 0.9784700274467468 -0.19630299508571625 -0.06373000144958496
          0.9834650158882141 -0.1749500036239624 0.04679900035262108 0.9359509944915771 -0.10721699893474579 0.3354099988937378
          0.983089029788971 -0.1698949933052063 -0.06834200024604797 0.9836609959602356 -0.10459599643945694 -0.14653000235557556
          0.7569609880447388 -0.10594599694013596 0.6448150277137756 0.8563939929008484 0.020419999957084656 -0.5159180164337158
          0.8468499779701233 -0.16958999633789062 -0.5040680170059204 0.9401990175247192 -0.21446199715137482 -0.26463499665260315
          -0.9572439789772034 -0.27842599153518677 -0.07850299775600433 -0.951213002204895 -0.25118398666381836 0.17916500568389893
          -0.9166319966316223 -0.29175201058387756 -0.2732509970664978 -0.3116529881954193 -0.5053669810295105 -0.8046600222587585
          -0.6963409781455994 -0.4442029893398285 -0.563730001449585 -0.5528749823570251 -0.5445950031280518 -0.6306710243225098
          -0.8047829866409302 -0.3737980127334595 -0.4610840082168579 -0.8777350187301636 -0.35184699296951294 -0.32524600625038147
          -0.037647999823093414 -0.4936560094356537 -0.8688420057296753 0.179966002702713 -0.46322301030158997 -0.8677769899368286
          0.51385897397995 -0.4339410066604614 -0.7400299906730652 0.8262929916381836 -0.2949250042438507 -0.4798530042171478
          -0.012791000306606293 -0.060750000178813934 0.998071014881134 -0.12522000074386597 -0.10772699862718582 0.9862629771232605
          0.1407729983329773 -0.08565600216388702 0.986329972743988 -0.3185519874095917 0.07547099888324738 0.9448959827423096
          -0.2104640007019043 -0.03634599968791008 0.9769260287284851 0.5414850115776062 -0.14560699462890625 0.8280050158500671
          0.4678550064563751 -0.15196500718593597 0.8706430196762085 0.5723180174827576 -0.12021800130605698 0.8111720085144043
          0.46857601404190063 -0.1260019987821579 0.8743910193443298 0.1363140046596527 -0.14316299557685852 0.9802669882774353
          0.041416000574827194 -0.2531740069389343 0.9665340185165405 -0.4133700132369995 -0.07356300204992294 0.9075869917869568