<?xml version="1.0"?>
<VTKFile type="PolyData" version="0.1" byte_order="LittleEndian" header_type="UInt32" compressor="vtkZLibDataCompressor">
  <PolyData>
    <Piece NumberOfPoints="1288" NumberOfVerts="0" NumberOfLines="0" NumberOfStrips="0" NumberOfPolys="2572">
      <PointData Normals="Normals">
        <DataArray type="Float32" Name="Normals" NumberOfComponents="3" format="ascii" RangeMin="0.9999992759441331" RangeMax="1.0000007308832697">
          0.328233003616333 -0.8985990285873413 0.2911739945411682 0.4363510012626648 -0.8912699818611145 0.123430997133255
          0.554722011089325 -0.8022440075874329 0.22065399587154388 0.558118999004364 -0.7711920142173767 0.30621200799942017
          0.16787700355052948 -0.9823830127716064 -0.08209899812936783 0.09782399982213974 -0.895796000957489 0.43356600403785706
          0.11564499884843826 -0.9782490134239197 0.1722079962491989 0.2594990134239197 -0.8562059998512268 0.4467340111732483
          0.6890450119972229 -0.72365802526474 0.039197999984025955 0.556007981300354 -0.8277810215950012 -0.07505600154399872
          0.3611010015010834 -0.9275640249252319 -0.09607899934053421 0.778331995010376 -0.6142820119857788 0.12983299791812897
          0.807328999042511 -0.5564919710159302 0.1963070034980774 0.45351600646972656 -0.7620189785957336 0.46222200989723206
          0.7268919944763184 -0.5897300243377686 0.3519189953804016 0.1312599927186966 -0.9568610191345215 -0.25920701026916504
          -0.1952980011701584 -0.9717720150947571 -0.1323550045490265 -0.16283099353313446 -0.9489529728889465 -0.2701359987258911
          -0.25802600383758545 -0.9235550165176392 0.28366899490356445 0.11850599944591522 -0.7644910216331482 0.6336479783058167
          -0.10783100128173828 -0.8250759840011597 0.5546370148658752 0.33445999026298523 -0.7132570147514343 0.6159549951553345
          0.6769819855690002 -0.7033360004425049 -0.21682700514793396 0.8016840219497681 -0.5811020135879517 -0.14008499681949615
          0.8698480129241943 -0.4929119944572449 0.020029999315738678 0.3932589888572693 -0.899948000907898 -0.18825900554656982
          0.4124239981174469 -0.8498280048370361 -0.32817399501800537 0.9107710123062134 -0.39928001165390015 0.10522399842739105
          0.9004979729652405 -0.4282599985599518 0.07547800242900848 0.8511840105056763 -0.46413999795913696 0.24507200717926025
          0.5609089732170105 -0.6247739791870117 0.5431740283966064 0.7083730101585388 -0.48950499296188354 0.5085200071334839
          0.8862339854240417 -0.35617101192474365 0.29619699716567993 0.19587600231170654 -0.9151009917259216 -0.35245299339294434
          -0.1659889966249466 -0.9261459708213806 -0.33867600560188293 -0.3553999960422516 -0.9343780279159546 0.025078000500798225
          -0.3595519959926605 -0.9222970008850098 -0.14174099266529083 -0.5824710130691528 -0.7893360257148743 -0.1941010057926178
          -0.4018450081348419 -0.8742820024490356 -0.27230900526046753 -0.3381589949131012 -0.8072680234909058 0.4837009906768799
          -0.537451982498169 -0.7529850006103516 0.3796820044517517 -0.4440310001373291 -0.867484986782074 0.22429199516773224
          -0.301472008228302 -0.7696139812469482 0.562857985496521 -0.07211100310087204 -0.8048319816589355 0.589106023311615
          0.14038200676441193 -0.7335739731788635 0.6649529933929443 0.46042799949645996 -0.5994430184364319 0.6547319889068604
          0.40765899419784546 -0.6004289984703064 0.6879670023918152 -0.4551140069961548 -0.7201460003852844 0.5236999988555908
          0.6893140077590942 -0.6416500210762024 -0.3363499939441681 0.6051390171051025 -0.7062940001487732 -0.36736398935317993
          0.7023540139198303 -0.5879009962081909 -0.40133699774742126 0.8477770090103149 -0.4747290015220642 -0.23644399642944336
          0.9102590084075928 -0.41223201155662537 -0.03864099830389023 0.9539009928703308 -0.2925190031528473 0.06712400168180466
          0.08192799985408783 -0.8479120135307312 -0.5237680077552795 0.131072998046875 -0.8207060098648071 -0.5561130046844482
          0.30385398864746094 -0.7792080044746399 -0.5481860041618347 0.949679970741272 -0.278425008058548 0.1434839963912964
          0.9640910029411316 -0.26002201437950134 0.0540039986371994 0.5360739827156067 -0.4395250082015991 0.7207229733467102
          0.6780890226364136 -0.36135798692703247 0.6400120258331299 0.8460929989814758 -0.304066002368927 0.4378010034561157
          0.9636359810829163 -0.21046100556850433 0.16465899348258972 0.9377869963645935 -0.15828099846839905 0.30903398990631104
          -0.19581900537014008 -0.9002709984779358 -0.38880300521850586 -0.5212500095367432 -0.7908030152320862 -0.32082599401474
          -0.4191649854183197 -0.8504359722137451 -0.31790000200271606 -0.4908379912376404 -0.8697720170021057 0.05075199902057648
          -0.7447410225868225 -0.6656169891357422 -0.04811700060963631 -0.6686540246009827 -0.698045015335083 -0.25619199872016907
          -0.8699460029602051 -0.47913599014282227 -0.11671800166368484 -0.8298349976539612 -0.5348309874534607 -0.15915299952030182
          -0.6757709980010986 -0.6158769726753235 0.4050059914588928 -0.6722270250320435 -0.7284629940986633 0.13210800290107727
          -0.8179730176925659 -0.5396869778633118 0.1991409957408905 -0.6019570231437683 -0.6438400149345398 0.472353994846344
          -0.5725780129432678 -0.7030280232429504 0.4217880070209503 -0.5303660035133362 -0.6311230063438416 0.5660359859466553
          -0.05066300183534622 -0.6866850256919861 0.7251880168914795 0.20372100174427032 -0.4770849943161011 0.8549200296401978
          0.5335729718208313 -0.6509690284729004 -0.5399439930915833 0.4310449957847595 -0.6371859908103943 -0.6389009952545166
          0.5995550155639648 -0.602187991142273 -0.5271649956703186 0.7794719934463501 -0.47947099804878235 -0.4031510055065155
          0.8873850107192993 -0.3480130136013031 -0.3023819923400879 0.9400330185890198 -0.3093250095844269 -0.14372600615024567
          0.9662439823150635 -0.2575390040874481 0.006802000105381012 0.9955840110778809 -0.09216400235891342 0.017834000289440155
          0.9929410219192505 -0.09047099947929382 0.0766960009932518 0.8405190110206604 -0.4053570032119751 -0.3594619929790497
          -0.4595920145511627 -0.7746700048446655 -0.43435201048851013 -0.47030898928642273 -0.7190089821815491 -0.5116990208625793
          0.07912100106477737 -0.8322460055351257 -0.5487319827079773 0.9468449950218201 -0.24066700041294098 -0.21345899999141693
          0.35638800263404846 -0.7278550267219543 -0.5858449935913086 0.3380270004272461 -0.6275179982185364 -0.7013980150222778
          0.16362600028514862 -0.7570689916610718 -0.6325139999389648 0.3804520070552826 -0.4213620126247406 0.8232319951057434
          0.5005840063095093 -0.3050900101661682 0.8101450204849243 0.8051509857177734 -0.23949399590492249 0.5425630211830139
          0.9237130284309387 -0.01521500013768673 0.38278400897979736 0.9867349863052368 -0.07962899655103683 0.1414649933576584
          0.9656170010566711 -0.04401300102472305 0.25621700286865234 -0.5790939927101135 -0.7506080269813538 -0.3181779980659485
          -0.6962180137634277 -0.6776160001754761 -0.2368919998407364 -0.7448139786720276 -0.6267589926719666 -0.22896400094032288
          -0.8526999950408936 -0.5208889842033386 0.0397149994969368 -0.9251670241355896 -0.3795590102672577 0.0010349999647587538
          -0.9573500156402588 -0.2864690124988556 -0.03763800114393234 -0.9015629887580872 -0.41405999660491943 -0.12545199692249298
          -0.7602729797363281 -0.5463119745254517 0.35146498680114746 -0.8845440149307251 -0.4365899860858917 0.16423000395298004
          -0.9264310002326965 -0.3709869980812073 0.06397899985313416 -0.7583659887313843 -0.4818989932537079 0.43892499804496765
          -0.7298979759216309 -0.3731040060520172 0.5727499723434448 -0.47661900520324707 -0.43112999200820923 0.7661340236663818
          -0.6365240216255188 -0.34253498911857605 0.6910189986228943 -0.18911199271678925 -0.3999130129814148 0.8968309760093689
          -0.1065019965171814 -0.37897801399230957 0.9192569851875305 0.24445299804210663 -0.5845100283622742 -0.7736870050430298
          0.13997499644756317 -0.6404889822006226 -0.7551040053367615 0.4919930100440979 -0.5626670122146606 -0.6643409729003906
          0.7535359859466553 -0.44248101115226746 -0.48620399832725525 0.9821149706840515 -0.12126699835062027 -0.14403100311756134
          0.8443750143051147 -0.290459007024765 -0.4501830041408539 0.923786997795105 -0.13807399570941925 -0.3571450114250183
          0.9991139769554138 0.01244099996984005 0.04021399840712547 0.9991520047187805 0.041099999099969864 -0.0023219999857246876
          0.9976300001144409 0.0674080029129982 -0.013791999779641628 0.9938949942588806 0.03309100121259689 -0.10525500029325485
          0.6428700089454651 -0.6258919835090637 -0.4415630102157593 -0.7397500276565552 -0.5854679942131042 -0.3316580057144165
          -0.7188929915428162 -0.5921189785003662 -0.3641259968280792 -0.7959010004997253 -0.4672810137271881 -0.3849540054798126
          -0.6801949739456177 -0.5081509947776794 -0.5283169746398926 -0.3578299880027771 -0.6665549874305725 -0.6539589762687683
          -0.10300800204277039 -0.8054519891738892 -0.583640992641449 0.13944700360298157 -0.6623470187187195 -0.7361050248146057
          0.1691190004348755 -0.34508299827575684 0.9232100248336792 0.3094789981842041 -0.14910000562667847 0.9391440153121948
          0.6175739765167236 -0.23837299644947052 0.7495200037956238 0.3988719880580902 -0.2054470032453537 0.8936960101127625
          0.8137990236282349 -0.16079199314117432 0.5584589838981628 0.9739980101585388 0.011163000017404556 0.226282000541687
          0.9639089703559875 0.13851800560951233 0.22735700011253357 0.7246350049972534 -0.13053399324417114 0.6766570210456848
          0.8385289907455444 0.12530800700187683 0.5302519798278809 0.7646600008010864 0.003533999901264906 0.6444240212440491
          0.9491549730300903 0.18463200330734253 0.2549799978733063 0.9999110102653503 0.013268000446259975 0.0010209999745711684
          -0.8611220121383667 -0.4608449935913086 -0.2146880030632019 -0.9706609845161438 -0.23754499852657318 -0.03726400062441826
          -0.918615996837616 -0.3623169958591461 0.15770399570465088 -0.9988200068473816 -0.047947999089956284 -0.007664999924600124
          -0.99440997838974 -0.08828999847173691 -0.05791600048542023 -0.9801560044288635 -0.19672200083732605 0.02436799928545952
          -0.9372550249099731 -0.3216339945793152 -0.13455499708652496 -0.8678439855575562 -0.3494580090045929 0.35316601395606995
          -0.8833900094032288 -0.20937800407409668 0.4192650020122528 -0.7392719984054565 -0.18435600399971008 0.6476799845695496
          -0.49911800026893616 -0.25109899044036865 0.8293560147285461 -0.5029069781303406 -0.14973300695419312 0.8512719869613647
          -0.32337599992752075 -0.25005900859832764 0.9126330018043518 0.11479700356721878 -0.5070440173149109 -0.8542410135269165
          0.418612003326416 -0.43775099515914917 -0.7957000136375427 0.0161920003592968 -0.5589780211448669 -0.8290240168571472
          -0.18452000617980957 -0.5087730288505554 -0.8408939838409424 0.7042099833488464 -0.3338150084018707 -0.6266220211982727
          0.9813560247421265 -0.015556000173091888 -0.19156800210475922 0.8467890024185181 -0.20782999694347382 -0.4896480143070221
          0.8641440272331238 -0.07820200175046921 -0.49713200330734253 0.946861982345581 0.06732399761676788 -0.31451401114463806
          0.9815390110015869 0.1793310046195984 0.06649799644947052 0.9956610202789307 0.06952600181102753 -0.06184399873018265
          0.971222996711731 0.19631600379943848 -0.13485699892044067 0.9417030215263367 0.2153259962797165 -0.2585139870643616
          -0.8738030195236206 -0.3899500072002411 -0.2905299961566925 -0.8162850141525269 -0.35074201226234436 -0.4589749872684479
          -0.634984016418457 -0.4421530067920685 -0.6334789991378784 -0.27531298995018005 -0.6022469997406006 -0.7493339776992798
          -0.0831959992647171 -0.498196005821228 -0.8630639910697937 0.16390499472618103 -0.47193801403045654 -0.8662620186805725
          0.03086799941956997 -0.13867400586605072 0.989857017993927 -0.10290300101041794 -0.3016279935836792 0.9478560090065002
          0.21598300337791443 -0.10867699980735779 0.970329999923706 -0.044454000890254974 0.007052000146359205 0.9989870190620422
          0.15414300560951233 -0.05004100129008293 0.9867810010910034 0.5360519886016846 -0.1955679953098297 0.8212199807167053
          0.34760400652885437 -0.19084300100803375 0.9180150032043457 0.9753599762916565 0.10405900329351425 0.1945350021123886
          0.9904289841651917 0.10061299800872803 0.09448499977588654 0.9581509828567505 0.2835719883441925 0.039156001061201096
          0.9736869931221008 0.1852799952030182 0.1326809972524643 0.6018239855766296 -0.10901899635791779 0.7911530137062073
          0.5927429795265198 0.1258399933576584 0.7954999804496765 0.5734130144119263 0.15701399743556976 0.804078996181488
          0.9124199748039246 0.15415500104427338 0.37911200523376465 0.8241549730300903 0.26566600799560547 0.500190019607544
          0.6218039989471436 0.19957900047302246 0.757315993309021 0.48509499430656433 -0.02250799909234047 0.8741719722747803
          0.9160599708557129 0.31906700134277344 0.24296100437641144 0.9492610096931458 0.3085609972476959 0.0607759989798069
          0.9726219773292542 0.1692740023136139 -0.1592240035533905 -0.956462025642395 -0.2688640058040619 -0.11354199796915054
          -0.9542930126190186 -0.18970000743865967 0.2309509962797165 -0.995851993560791 0.07974699884653091 0.04379900172352791
          -0.9883360266685486 -0.1283469945192337 -0.08197099715471268 -0.9858570098876953 0.0435199998319149 0.16183799505233765
          -0.9894829988479614 -0.005652999971061945 0.1445380002260208 -0.9985349774360657 -0.03832999989390373 0.03818700090050697
          -0.9989179968833923 -0.031224999576807022 0.03446200117468834 -0.9853950142860413 -0.027535999193787575 0.16804499924182892
          -0.9092789888381958 -0.014841999858617783 0.41592198610305786 -0.6917080283164978 -0.06829500198364258 0.7189409732818604
          -0.8079389929771423 -0.006535000167787075 0.5892300009727478 -0.7542679905891418 0.054614998400211334 0.6542909741401672
          -0.629351019859314 -0.03278199955821037 0.7764289975166321 -0.5909550189971924 -0.05651399865746498 0.8047230243682861
          -0.33945900201797485 -0.10089000314474106 0.9351950287818909 0.20917899906635284 -0.32994401454925537 -0.9205330014228821
          -0.12613999843597412 -0.2706870138645172 -0.9543669819831848 -0.2236279994249344 -0.4003640115261078 -0.8886500000953674
          0.7038739919662476 -0.29709500074386597 -0.6452100276947021 0.08761200308799744 -0.41588300466537476 -0.9051880240440369
          0.5311359763145447 -0.24863199889659882 -0.8099859952926636 0.8358970284461975 -0.2162110060453415 -0.5045089721679688
          0.7623119950294495 -0.14473499357700348 -0.6308190226554871 0.7517529726028442 -0.05389299988746643 -0.6572380065917969
          0.8461229801177979 0.06787300109863281 -0.5286480188369751 0.9508309960365295 0.16586799919605255 -0.2615489959716797
          0.966916024684906 0.24653300642967224 -0.0655359998345375 0.9549980163574219 0.2791770100593567 0.10019499808549881
          0.994504988193512 0.09309499710798264 0.04789400100708008 0.9479420185089111 0.30184200406074524 -0.10147300362586975
          0.948028028011322 0.3034690022468567 0.09565199911594391 0.921766996383667 0.2526080012321472 -0.29416701197624207
          0.9547640085220337 0.255950003862381 -0.15137599408626556 0.9592589735984802 0.16172799468040466 -0.23165999352931976
          -0.932437002658844 -0.2334199994802475 -0.2758210003376007 -0.8531739711761475 -0.2648940086364746 -0.44936099648475647
          -0.6881150007247925 -0.3818039894104004 -0.617027997970581 -0.41032999753952026 -0.4409469962120056 -0.7982450127601624
          -0.5615699887275696 -0.27567100524902344 -0.7801560163497925 -0.18696799874305725 -0.2998349964618683 -0.9354900121688843
          0.06038299947977066 -0.30595698952674866 -0.950128972530365 -0.225955992937088 0.04581400007009506 0.9730600118637085
          -0.44133299589157104 0.17003099620342255 0.8810870051383972 -0.5539259910583496 0.12513500452041626 0.8231080174446106
          -0.3636240065097809 0.09061600267887115 0.9271280169487 -0.0833519995212555 0.13196800649166107 0.9877430200576782
          0.4003849923610687 -0.13714100420475006 0.9060270190238953 0.1522890031337738 -0.07206200063228607 0.9857050180435181
          -0.07245100289583206 0.06575900316238403 0.9952020049095154 0.973576009273529 0.22784100472927094 0.015424000099301338
          0.9617080092430115 0.19495899975299835 -0.19263599812984467 0.9670150279998779 0.2530420124530792 0.029201000928878784
          0.9836379885673523 0.15603500604629517 -0.0900539979338646 0.2618280053138733 0.1294730007648468 0.9563909769058228
          0.35847899317741394 0.16563299298286438 0.9187260270118713 0.30949699878692627 0.19453400373458862 0.9307889938354492
          0.625603973865509 0.343843013048172 0.7002800107002258 0.7214040160179138 0.5696380138397217 0.39381301403045654
          0.38567599654197693 0.3323409855365753 0.8606989979743958 0.21750999987125397 0.021870000287890434 0.9758129715919495
          0.8379279971122742 0.48301100730895996 0.25411999225616455 0.6905220150947571 0.6921129822731018 0.21014200150966644
          0.9050899744033813 0.3258660137653351 0.2731730043888092 -0.969406008720398 0.1321610063314438 0.2068450003862381
          -0.976980984210968 0.1599379926919937 0.1411679983139038 -0.9454770088195801 -0.040525998920202255 -0.32315799593925476
          -0.9961720108985901 0.013515999540686607 -0.08635900169610977 -0.9972869753837585 -0.06416700035333633 -0.036058999598026276
          -0.9731209874153137 0.16349400579929352 0.1621900051832199 -0.9392279982566833 0.11742299795150757 0.3225870132446289
          -0.9611650109291077 -0.045097000896930695 0.2722660005092621 -0.9939370155334473 -0.08646699786186218 -0.06791800260543823
          -0.9978269934654236 -0.06587199866771698 0.0011749999830499291 -0.9967740178108215 -0.04616300016641617 -0.0656609982252121
          -0.9980270266532898 -0.022613000124692917 0.05857099965214729 -0.99993497133255 -0.004935000091791153 0.010261000134050846
          -0.8794659972190857 0.09655699878931046 0.466064989566803 -0.7620279788970947 0.06931500136852264 0.6438230276107788
          -0.8777830004692078 0.200887992978096 0.4349049925804138 -0.6168280243873596 -0.0523190014064312 0.7853569984436035
          -0.42290401458740234 -0.06870300322771072 0.9035670161247253 -0.3684479892253876 -0.17387400567531586 -0.9132440090179443
          -0.4520390033721924 -0.1398559957742691 -0.8809660077095032 -0.4257889986038208 -0.01433899998664856 -0.904708981513977
          -0.2907809913158417 -0.20365500450134277 -0.9348639845848083 -0.21521000564098358 -0.2918829917907715 -0.9319279789924622
          0.289126992225647 -0.27086201310157776 -0.9181720018386841 0.015227999538183212 -0.2374649941921234 -0.9712769985198975
          0.25661200284957886 -0.12951600551605225 -0.9577969908714294 0.5472210049629211 -0.09574300050735474 -0.8314939737319946
          0.4864799976348877 -0.010610999539494514 -0.8736270070075989 0.6514779925346375 0.061184000223875046 -0.7561960220336914
          0.8575729727745056 0.2179500013589859 -0.46590301394462585 0.6413030028343201 0.20683600008487701 -0.7388839721679688
          0.9068419933319092 0.39325299859046936 -0.1516219973564148 0.9356170296669006 0.27020299434661865 -0.227182999253273
          0.9287179708480835 0.34734898805618286 0.12973399460315704 0.9051870107650757 0.35350099205970764 -0.23595300316810608
          0.9199910163879395 0.38568800687789917 0.06972099840641022 0.9742720127105713 0.20784300565719604 -0.08714800328016281
          0.9695249795913696 0.21381700038909912 0.11959700286388397 0.9652069807052612 0.2042820006608963 0.1632319986820221
          0.990576982498169 0.13505299389362335 -0.022738000378012657 0.9995250105857849 0.018571000546216965 -0.024598000571131706
          -0.7089679837226868 -0.23059900104999542 -0.6664749979972839 -0.8306919932365417 -0.010916000232100487 -0.5566250085830688
          -0.6004989743232727 -0.26809200644493103 -0.7533439993858337 -0.6724280118942261 -0.08551300317049026 -0.7352060079574585
          -0.559715986251831 -0.11980000138282776 -0.8199790120124817 -0.4664810001850128 0.020166000351309776 0.8843010067939758
          -0.6666949987411499 0.07113800197839737 0.741927981376648 -0.7776399850845337 0.18110699951648712 0.6020600199699402
          -0.8350750207901001 0.2177720069885254 0.5051990151405334 -0.6731359958648682 0.20361800491809845 0.7109339833259583
          -0.4110899865627289 0.2049410045146942 0.8882589936256409 -0.38960200548171997 0.22671499848365784 0.8926420211791992
          -0.11174800246953964 0.025290999561548233 0.9934149980545044 0.9810370206832886 0.10075300186872482 0.16557499766349792
          0.9986310005187988 -0.011096999980509281 0.05112000182271004 -0.12191200256347656 0.1341940015554428 0.9834269881248474
          0.14040499925613403 0.15003399550914764 0.978659987449646 -0.18252399563789368 0.13967099785804749 0.9732300043106079
          -0.1520960032939911 0.17583200335502625 0.972599983215332 0.18595999479293823 0.3368400037288666 0.9230160117149353
          0.6125760078430176 0.42297500371932983 0.66771399974823 0.6067889928817749 0.6901869773864746 0.39427098631858826
          0.45090198516845703 0.4953649938106537 0.7424970269203186 0.43216899037361145 0.681725025177002 0.5903229713439941
          0.6333270072937012 0.6046950221061707 0.48295098543167114 0.8258579969406128 0.4679900109767914 0.31455400586128235
          0.9041230082511902 0.09932299703359604 0.4155679941177368 0.8154969811439514 0.20603099465370178 0.5408480167388916
          0.7147629857063293 0.36882200837135315 0.5942080020904541 -0.9420629739761353 0.22932900488376617 0.2447970062494278
          -0.9164320230484009 0.14222300052642822 -0.37406501173973083 -0.9894629716873169 0.035075001418590546 -0.14047299325466156
          -0.9730380177497864 -0.06747700273990631 -0.22055499255657196 -0.967054009437561 -0.11554499715566635 -0.22683799266815186
          -0.8717790246009827 0.185029998421669 0.4536139965057373 -0.8459590077400208 0.05915600061416626 0.5299559831619263
          -0.9909769892692566 -0.08183299750089645 0.10614900290966034 -0.9054650068283081 -0.016022000461816788 0.4241180121898651
          -0.9987850189208984 -0.04232100024819374 -0.025248000398278236 -0.9722279906272888 -0.06810799986124039 -0.22390800714492798
          -0.9851490259170532 -0.04974700137972832 -0.1643349975347519 -0.9650310277938843 -0.09932199865579605 -0.24258999526500702
          -0.9044070243835449 0.26309600472450256 0.3359000086784363 -0.44004300236701965 -0.03866200149059296 -0.8971440196037292
          -0.5319759845733643 0.09442500025033951 -0.8414779901504517 -0.5215240120887756 0.039535000920295715 -0.8523200154304504
          -0.657414972782135 -0.06595899909734726 -0.7506359815597534 -0.7087849974632263 0.02645999938249588 -0.704928994178772
          -0.6743490099906921 0.1835079938173294 -0.7152469754219055 -0.1964769959449768 -0.11802899837493896 -0.9733790159225464
          -0.021525999531149864 -0.11714299768209457 -0.9928820133209229 0.21278999745845795 -0.056008998304605484 -0.9754909873008728
          0.36184900999069214 0.11826000362634659 -0.9247050285339355 0.15046299993991852 0.058632999658584595 -0.9868760108947754
          0.7408620119094849 0.4327070116996765 -0.5137010216712952 0.8666689991950989 0.41767799854278564 -0.27281999588012695
          0.486501008272171 0.32030799984931946 -0.8128460049629211 0.22886300086975098 0.23885799944400787 -0.9436990022659302
          0.8505210280418396 0.4476650059223175 -0.27605998516082764 0.8790630102157593 0.3549549877643585 -0.3182069957256317
          0.8301090002059937 0.5242519974708557 -0.1899459958076477 0.5698400139808655 0.8074849843978882 0.1524830013513565
          0.8019949793815613 0.4780009984970093 -0.35821598768234253 0.8791400194168091 0.4717540144920349 -0.06753499805927277
          0.9357370138168335 -0.0062870001420378685 -0.3526409864425659 0.9938110113143921 -0.07663600146770477 -0.0804160013794899
          0.997111976146698 -0.0728129968047142 -0.021599000319838524 0.9784979820251465 -0.08585800230503082 -0.18753699958324432
          -0.7881929874420166 0.019953999668359756 -0.6151049733161926 -0.8925009965896606 0.23472699522972107 0.3851569890975952
          -0.919471025466919 0.24928799271583557 0.3040210008621216 -0.6834869980812073 0.2679240107536316 0.6790159940719604
          -0.7193959951400757 0.28397101163864136 0.633899986743927 -0.7760350108146667 0.31503498554229736 0.5463730096817017
          -0.41429901123046875 0.15758700668811798 0.8963940143585205 -0.6670259833335876 0.1981939971446991 0.718189001083374
          0.9853990077972412 -0.007836000062525272 0.1700800061225891 0.9980819821357727 -0.05113599821925163 0.03487899899482727
          -0.5042030215263367 0.14225900173187256 0.8517869710922241 -0.548350989818573 0.11561699956655502 0.8282170295715332
          -0.21128499507904053 0.3063820004463196 0.928164005279541 -0.6073229908943176 0.2092600017786026 0.7663999795913696
          -0.04594400152564049 0.4259679913520813 0.9035710096359253 0.253013014793396 0.48028799891471863 0.8398259878158569
          -0.027053000405430794 0.5474960207939148 0.8363710045814514 -0.3475559949874878 0.5548480153083801 0.7558760046958923
          0.20237700641155243 0.7129169702529907 0.6714109778404236 0.3558709919452667 0.6349490284919739 0.6857079863548279
          0.7635689973831177 0.13785099983215332 0.630840003490448 0.9324380159378052 -0.015569999814033508 0.36099299788475037
          0.7527030110359192 0.00927599985152483 0.6582949757575989 0.4142239987850189 0.3451850116252899 0.842179000377655
          0.6382570266723633 0.15591800212860107 0.7538679838180542 -0.9100040197372437 0.2302200049161911 0.3448059856891632
          -0.8458449840545654 0.1262650042772293 -0.5182700157165527 -0.8479769825935364 0.13284699618816376 -0.5131149888038635
          -0.934440016746521 -0.0008539999835193157 -0.3561190068721771 -0.9114530086517334 -0.08893200010061264 -0.4016759991645813
          -0.827360987663269 0.13399499654769897 0.5454530119895935 -0.7505130171775818 0.061806000769138336 0.657958984375
          -0.9994180202484131 -0.03308599814772606 -0.008310999721288681 -0.9970539808273315 -0.024661999195814133 0.0726270005106926
          -0.9604420065879822 -0.011029999703168869 0.2782599925994873 -0.8475139737129211 -0.018293999135494232 0.5304579734802246
          0.9994009733200073 0.019331999123096466 -0.02869199961423874 0.049782998859882355 -0.5361890196800232 -0.8426290154457092
          -0.9205769896507263 -0.08791700005531311 -0.3805370032787323 -0.9153479933738708 -0.08685000240802765 -0.3931860029697418
          -0.9962090253829956 -0.043501000851392746 -0.07533200085163116 -0.9518880248069763 -0.09997200220823288 -0.28968098759651184
          -0.9592949748039246 -0.05482099950313568 -0.2770340144634247 -0.998458981513977 -0.02208399958908558 -0.050909001380205154
          -0.8956739902496338 -0.12926499545574188 -0.4255090057849884 -0.16268999874591827 -0.034175001084804535 -0.9860849976539612
          -0.5843870043754578 0.09739399701356888 -0.8056089878082275 -0.52019202709198 0.0773409977555275 -0.8505399823188782
          -0.6503959894180298 0.17728500068187714 -0.7386170029640198 -0.8250390291213989 0.18823100626468658 -0.5328029990196228
          -0.0075690001249313354 0.15761500597000122 -0.9874719977378845 -0.14412200450897217 0.09116200357675552 -0.9853519797325134
          0.5646129846572876 0.7250710129737854 -0.3943139910697937 0.42175498604774475 0.48428699374198914 -0.7665429711341858
          0.400301992893219 0.21386300027370453 -0.8910790085792542 -0.1326259970664978 0.1988220065832138 -0.971019983291626
          -0.24905000627040863 0.2737649977207184 -0.9289929866790771 -0.022609999403357506 0.33033400774002075 -0.9435930252075195
          0.7751979827880859 0.2985300123691559 -0.5567299723625183 0.7798309922218323 0.5267800092697144 -0.3381809890270233
          0.8658390045166016 0.10834699869155884 -0.4884510040283203 0.9073969721794128 -0.11337099969387054 -0.4046950042247772
          0.7814710140228271 -0.12737999856472015 -0.61080002784729 0.8565459847450256 -0.03182300180196762 -0.5150880217552185
          0.9775400161743164 -0.14173699915409088 -0.15596699714660645 0.9773740172386169 -0.1039929986000061 -0.1841910034418106
          0.9937310218811035 -0.11168999969959259 0.004827999975532293 0.9903950095176697 -0.06503699719905853 -0.122018001973629
          -0.9028090238571167 0.1976809948682785 0.3819130063056946 -0.7997509837150574 0.20983199775218964 0.5624669790267944
          -0.7230579853057861 0.15787599980831146 0.6725040078163147 -0.6969090104103088 0.2028139978647232 0.6878839731216431
          0.9903489947319031 -0.0440250001847744 0.13141599297523499 -0.4578090012073517 0.4031519889831543 0.7923880219459534
          -0.6947680115699768 0.33267098665237427 0.637673020362854 -0.014847000129520893 0.658236026763916 0.7526649832725525
          -0.3387109935283661 0.46643000841140747 0.8171399831771851 -0.6411960124969482 0.32598501443862915 0.694694995880127
          0.06338100135326385 0.5395259857177734 0.8395799994468689 0.9821059703826904 -0.079134002327919 0.1708970069885254