<?xml version="1.0"?>
<VTKFile type="PolyData" version="0.1" byte_order="LittleEndian" header_type="UInt32" compressor="vtkZLibDataCompressor">
  <PolyData>
    <Piece NumberOfPoints="1122" NumberOfVerts="0" NumberOfLines="0" NumberOfStrips="0" NumberOfPolys="2240">
      <PointData Normals="Normals">
        <DataArray type="Float32" Name="Normals" NumberOfComponents="3" format="ascii" RangeMin="0.9999993125420018" RangeMax="1.0000008373109541">
          -0.3344210088253021 0.9421939849853516 -0.020793000236153603 -0.042548999190330505 0.9868810176849365 -0.1557449996471405
          -0.2780739963054657 0.88850998878479 -0.364998996257782 -0.5515779852867126 0.8157989978790283 -0.17388099431991577
          0.12664400041103363 0.9826570153236389 0.13544900715351105 -0.07486499845981598 0.93613600730896 0.34357601404190063
          -0.5315790176391602 0.8206899762153625 0.20950399339199066 0.37785598635673523 0.9234079718589783 -0.067392997443676
          -0.42368099093437195 0.8376230001449585 -0.3447929918766022 -0.22596600651741028 0.8529019951820374 -0.47063499689102173
          -0.4740230143070221 0.7775059938430786 -0.4132629930973053 -0.36886700987815857 0.8940389752388 -0.25422701239585876
          -0.3191240131855011 0.8952530026435852 -0.3109380006790161 -0.10424699634313583 0.9608060121536255 -0.2568730115890503
          -0.3575409948825836 0.8885909914970398 -0.28735101222991943 0.24392099678516388 0.967536985874176 -0.06614000350236893
          -0.4676539897918701 0.8734899759292603 -0.1353289932012558 -0.4961639940738678 0.8534489870071411 0.15951600670814514
          -0.3437170088291168 0.8691620230674744 -0.35555100440979004 0.41760799288749695 0.8614609837532043 0.28894299268722534
          -0.45481500029563904 0.8382959961891174 0.3006719946861267 0.33023399114608765 0.8458809852600098 0.4188440144062042
          0.1252710074186325 0.8987420201301575 0.42020198702812195 -0.6391299962997437 0.7335159778594971 0.2312290072441101
          0.4568899869918823 0.8859130144119263 -0.0800589993596077 0.5516660213470459 0.8061360120773315 0.21402999758720398
          0.5461450219154358 0.8315929770469666 0.10088499635457993 0.5583410263061523 0.7954549789428711 -0.23559799790382385
          -0.2913829982280731 0.9210270047187805 -0.2584669888019562 0.7558370232582092 0.5580289959907532 -0.34251099824905396
          -0.19126400351524353 0.969901978969574 -0.1506900042295456 -0.46303799748420715 0.8752279877662659 -0.13989999890327454
          -0.37579700350761414 0.9266149997711182 -0.012683000415563583 -0.0051369997672736645 0.9977530241012573 -0.06680399924516678
          0.0015899999998509884 0.9885460138320923 -0.15090900659561157 -0.39911800622940063 0.9136000275611877 -0.07771900296211243
          0.6647430062294006 0.7416769862174988 0.08962000161409378 0.5273939967155457 0.8438389897346497 0.09895499795675278
          0.3477550148963928 0.931984007358551 -0.1023309975862503 -0.16141700744628906 0.977325975894928 0.13703100383281708
          -0.19040900468826294 0.9582729935646057 -0.21320900321006775 -0.27494698762893677 0.8981099724769592 0.34322500228881836
          -0.5149289965629578 0.8427249789237976 0.157041996717453 -0.40186798572540283 0.8542879819869995 0.32968801259994507
          0.9442359805107117 0.2916640043258667 -0.1528100073337555 0.5872290134429932 0.7099249958992004 0.38880500197410583
          0.4470610022544861 0.7722880244255066 0.451339989900589 -0.5463280081748962 0.8137379884719849 0.19838300347328186
          -0.1309960037469864 0.9468430280685425 0.29381799697875977 0.28407201170921326 0.8978449702262878 0.3364189863204956
          0.7053840160369873 0.6925609707832336 0.1509760022163391 0.7179319858551025 0.6550179719924927 0.23563900589942932
          -0.11130599677562714 0.9937859773635864 0.0007789999945089221 0.15342099964618683 0.9772189855575562 -0.14664800465106964
          -0.274848997592926 0.9539849758148193 0.11987899988889694 0.36815398931503296 0.9244210124015808 0.09953799843788147
          0.18537500500679016 0.8954939842224121 0.40463098883628845 0.5012400150299072 0.8645719885826111 -0.035670001059770584
          0.4718349874019623 0.8692799806594849 -0.14738699793815613 0.3767719864845276 0.8995339870452881 -0.22109399735927582
          0.08869999647140503 0.9585660099983215 -0.2707099914550781 -0.1772110015153885 0.9715960025787354 -0.15683600306510925
          -0.059836000204086304 0.9476510286331177 -0.31365299224853516 -0.05646299943327904 0.9061459898948669 -0.4191789925098419
          0.7211260199546814 0.6927160024642944 -0.011003999970853329 0.9425619840621948 0.3267970085144043 0.06914599984884262
          0.9290940165519714 0.36660999059677124 0.04879499971866608 0.8142510056495667 0.5748389959335327 0.08096799999475479
          -0.03522200137376785 0.9057419896125793 0.4223630130290985 -0.16187100112438202 0.9276080131530762 0.3366610109806061
          -0.3195120096206665 0.8977410197257996 0.30327099561691284 -0.4169900119304657 0.880952000617981 0.223703995347023
          -0.21813200414180756 0.972790002822876 0.07808899879455566 -0.3311539888381958 0.9425240159034729 -0.044562000781297684
          -0.45721200108528137 0.8892980217933655 0.010251999832689762 -0.47870200872421265 0.8727579712867737 0.09559600055217743
          0.7595080137252808 0.40651699900627136 0.5078290104866028 0.822513997554779 0.4559130072593689 0.3400219976902008
          0.6473399996757507 0.5333319902420044 0.5445259809494019 0.8583790063858032 0.40135499835014343 0.31953099370002747
          0.4983460009098053 0.7562969923019409 0.4238690137863159 -0.00469100009649992 0.9312959909439087 0.36423200368881226
          0.2416439950466156 0.9218630194664001 0.302947998046875 -0.3189750015735626 0.9245719909667969 0.20837800204753876
          0.5405539870262146 0.749983012676239 0.3812189996242523 0.9253159761428833 0.3291819989681244 0.18822599947452545
          -0.05362100154161453 0.988457977771759 0.14168700575828552 0.17695200443267822 0.9841870069503784 -0.008036999963223934
          0.2509920001029968 0.9648150205612183 -0.07832500338554382 0.39551401138305664 0.9108210206031799 -0.11820700019598007
          -0.030869999900460243 0.9921000003814697 0.12159200012683868 0.24211600422859192 0.8579080104827881 0.4531809985637665
          0.3122679889202118 0.9491410255432129 0.04024500027298927 0.4368540048599243 0.8876870274543762 -0.1455010026693344
          0.11170600354671478 0.8480439782142639 0.5180180072784424 0.7708989977836609 0.6362959742546082 -0.02902200073003769
          0.7064430117607117 0.6921219825744629 -0.1480029970407486 0.3580459952354431 0.8030869960784912 -0.4762920141220093
          0.664497971534729 0.6445559859275818 -0.37814000248908997 0.11866799741983414 0.7665820121765137 -0.631085991859436
          0.09478399902582169 0.5068870186805725 -0.856784999370575 0.1022770032286644 0.55485600233078 -0.8256350159645081
          0.17597700655460358 0.4625290036201477 -0.8689650297164917 0.008289000019431114 0.49006399512290955 -0.8716470003128052
          0.08007200062274933 0.7241770029067993 -0.6849489808082581 -0.12011799961328506 0.947318971157074 -0.2969140112400055
          -0.03973200172185898 0.9944750070571899 0.09716200083494186 0.9887660145759583 0.08352400362491608 0.12396100163459778
          0.9860889911651611 -0.027540000155568123 0.1639229953289032 0.9942539930343628 0.08025100082159042 -0.07084400206804276
          0.9308590292930603 0.3515549898147583 -0.0995509997010231 0.016982000321149826 0.9464750289916992 0.3223319947719574
          0.17089900374412537 0.8541610240936279 0.4911240041255951 0.09310600161552429 0.9778940081596375 0.1872279942035675
          0.002188999904319644 0.9994969964027405 0.031640999019145966 -0.14753900468349457 0.9885990023612976 -0.030062999576330185
          -0.32991400361061096 0.943805992603302 -0.019682999700307846 -0.411888986825943 0.9023069739341736 0.12724000215530396
          -0.33419299125671387 0.9351469874382019 0.11753500252962112 0.9094880223274231 0.0477369986474514 0.41297999024391174
          0.8301010131835938 0.1566859930753708 0.5351459980010986 0.6793199777603149 0.485632985830307 0.550167977809906
          0.9576780200004578 0.013760999776422977 0.28751200437545776 0.2994840145111084 0.8370460271835327 0.45789098739624023
          -0.13565300405025482 0.9232710003852844 0.3594000041484833 0.7527949810028076 0.48871898651123047 0.44096899032592773
          0.7364150285720825 0.46200400590896606 0.49421200156211853 0.602649986743927 0.6249359846115112 0.49625399708747864
          0.982125997543335 -0.05988600105047226 0.17844299972057343 0.282709002494812 0.9573469758033752 -0.05968799814581871
          -0.056223999708890915 0.9913070201873779 -0.11895299702882767 0.14915800094604492 0.9436960220336914 -0.29527801275253296
          0.02108900062739849 0.9848440289497375 0.1721549928188324 0.08387699723243713 0.8721070289611816 0.48207199573516846
          0.15225599706172943 0.9187710285186768 -0.3642509877681732 -0.03143399953842163 0.9499080181121826 -0.3109450042247772
          0.8522099852561951 0.42300501465797424 -0.307902991771698 0.7094020247459412 0.4271549880504608 -0.5606139898300171
          0.4018169939517975 0.623062014579773 -0.6710709929466248 0.33727699518203735 0.43529099225997925 -0.834725022315979
          0.04887999966740608 0.43914300203323364 -0.8970860242843628 0.08279400318861008 0.35871100425720215 -0.9297699928283691
          0.02613300085067749 0.36168599128723145 -0.9319329857826233 0.0466810017824173 0.361503005027771 -0.9312019944190979
          0.2324180006980896 0.2900469899177551 -0.9283609986305237 0.643563985824585 0.22244200110435486 -0.7323560118675232
          0.01684900000691414 0.641867995262146 -0.7666299939155579 -0.20254400372505188 0.652642011642456 -0.7300919890403748
          -0.23024800419807434 0.9368079900741577 -0.26339399814605713 -0.27814701199531555 0.7313899993896484 -0.6226580142974854
          0.9511920213699341 -0.07262899726629257 0.29993098974227905 0.995727002620697 -0.059595998376607895 0.07053600251674652
          0.9010350108146667 -0.10081599652767181 0.4218679964542389 0.9440410137176514 -0.20921200513839722 0.25498199462890625
          0.9074090123176575 0.25527098774909973 -0.3338330090045929 0.9236140251159668 0.09792900085449219 -0.370604008436203
          0.9924889802932739 -0.05415299907326698 -0.1096929982304573 0.9823160171508789 -0.18721799552440643 0.0020570000633597374
          0.1766040027141571 0.9125819802284241 0.3687880039215088 0.025009000673890114 0.8435019850730896 0.5365440249443054
          -0.13292700052261353 0.8200250267982483 0.556676983833313 0.06511200219392776 0.9351130127906799 0.3483160138130188
          -0.076944999396801 0.9714210033416748 0.2245440036058426 -0.15711599588394165 0.964883029460907 0.21051399409770966
          -0.13526399433612823 0.9651529788970947 0.22401799261569977 -0.1153160035610199 0.9895560145378113 0.086497001349926
          -0.23043900728225708 0.9204059839248657 0.3158330023288727 -0.2927339971065521 0.9450129866600037 0.145796999335289
          -0.015639999881386757 0.9352099895477295 0.35374900698661804 0.8980849981307983 -0.14795100688934326 0.41419100761413574
          0.942700982093811 -0.14461399614810944 0.3006669878959656 0.9649879932403564 -0.12697899341583252 0.22950999438762665
          0.8967289924621582 -0.03511400148272514 0.44118401408195496 0.823373019695282 0.21152900159358978 0.5266039967536926
          0.9651619791984558 -0.234948992729187 0.11515700072050095 0.14741800725460052 0.8348960280418396 0.5302990078926086
          0.48354199528694153 0.5707319974899292 0.6636660099029541 0.6860039830207825 0.4064309895038605 0.60350102186203
          -0.0855799987912178 0.9697859883308411 -0.22845299541950226 -0.30107301473617554 0.7856209874153137 -0.5405129790306091
          -0.4589860141277313 0.6625400185585022 -0.5919229984283447 -0.4429520070552826 0.872098982334137 0.20793400704860687
          -0.42037099599838257 0.8803600072860718 -0.21966899931430817 -0.3153330087661743 0.7847440242767334 -0.5336120128631592
          0.5144010186195374 0.3773680031299591 -0.7700549960136414 0.2590689957141876 0.2313240021467209 -0.9377480149269104
          0.2513979971408844 0.2075899988412857 -0.945360004901886 -0.007931999862194061 0.2234490066766739 -0.9746829867362976
          -0.08113499730825424 0.2666099965572357 -0.9603829979896545 -0.05730900168418884 0.3262450098991394 -0.9435459971427917
          0.49549901485443115 0.09023500233888626 -0.8639090061187744 0.7363690137863159 0.04526900127530098 -0.6750640273094177
          -0.31506800651550293 0.28001999855041504 -0.9068189859390259 -0.4464389979839325 0.45287200808525085 -0.7717509865760803
          0.9677019715309143 -0.15844300389289856 0.19608500599861145 0.9379169940948486 -0.15519900619983673 0.3102020025253296
          0.9819920063018799 -0.18867400288581848 0.009734000079333782 0.9668269753456116 -0.03150000050663948 0.25348401069641113
          0.935670018196106 -0.15273399651050568 0.31811100244522095 0.8957279920578003 -0.03304700180888176 -0.4433720111846924
          0.9733710289001465 -0.0640769973397255 -0.22009700536727905 0.99093097448349 -0.12373699992895126 0.05238400027155876
          0.9930940270423889 -0.11264000087976456 -0.03280000016093254 0.9636690020561218 -0.2645510137081146 0.0368180014193058
          0.9703369736671448 -0.23768900334835052 0.04415399953722954 0.9886620044708252 -0.14076200127601624 -0.0522879995405674
          0.9775689840316772 -0.1783899962902069 0.11196599900722504 0.9797220230102539 -0.15899500250816345 -0.12191999703645706
          -0.17520800232887268 0.8703050017356873 0.4602949917316437 -0.4982849955558777 0.8365700244903564 0.22773300111293793
          -0.6171870231628418 0.722449004650116 0.3116849958896637 -0.5497900247573853 0.7610819935798645 0.3442170023918152
          -0.5197420120239258 0.8008360266685486 0.29753899574279785 -0.334291011095047 0.8198130130767822 0.46492600440979004
          -0.791504979133606 0.5454930067062378 0.2756020128726959 -0.5180140137672424 0.5876290202140808 0.6215729713439941
          -0.3562780022621155 0.8155480027198792 0.4560129940509796 -0.33312100172042847 0.8142859935760498 0.47536200284957886
          -0.3972119987010956 0.6148160099983215 0.6813399791717529 -0.23351599276065826 0.8600590229034424 0.45361799001693726
          0.2261669933795929 0.8910040259361267 0.39364999532699585 0.8180130124092102 0.500361979007721 0.2837139964103699
          0.9477919936180115 0.2803660035133362 0.15193599462509155 0.8931530117988586 -0.15162399411201477 0.42342400550842285
          0.9104790091514587 -0.22036300599575043 0.3499549925327301 0.9530630111694336 -0.20054000616073608 0.22683699429035187
          0.9758080244064331 -0.1597059965133667 0.14930899441242218 0.9009770154953003 -0.08104400336742401 0.4262309968471527
          0.7838600277900696 0.029471000656485558 0.6202369928359985 0.6549429893493652 0.2651979923248291 0.7076150178909302
          0.861985981464386 -0.10332199931144714 0.49629199504852295 0.9897220134735107 -0.11903300136327744 0.07925499975681305
          0.3361009955406189 0.5898129940032959 0.7342730164527893 0.04157700017094612 0.8663660287857056 0.4976760149002075
          0.5081959962844849 0.33835500478744507 0.7919930219650269 -0.4128890037536621 0.6177949905395508 -0.6692180037498474
          -0.5350880026817322 0.4095749855041504 -0.7388700246810913 -0.5832729935646057 0.3714579939842224 -0.7223650217056274
          -0.6528220176696777 0.7365999817848206 -0.1767600029706955 -0.749629020690918 0.6446750164031982 -0.149835005402565
          -0.5383070111274719 0.7266759872436523 -0.42680999636650085 -0.4564320147037506 0.6402199864387512 -0.6178900003433228
          0.45677000284194946 -0.012159000150859356 -0.8895019888877869 0.26220399141311646 0.01964000053703785 -0.9648129940032959
          0.09444200247526169 0.026812000200152397 -0.9951689839363098 -0.06149499863386154 0.00330700003542006 -0.9981020092964172
          -0.24153700470924377 0.12935499846935272 -0.9617310166358948 0.5979350209236145 -0.05945099890232086 -0.7993370294570923
          0.7461839914321899 -0.08417099714279175 -0.660398006439209 -0.3767470121383667 0.033643998205661774 -0.9257050156593323
          -0.4137600064277649 -0.005379999987781048 -0.9103699922561646 -0.5165500044822693 0.18487200140953064 -0.8360620141029358
          0.9452720284461975 -0.18732799589633942 0.26715099811553955 0.954010009765625 -0.16484299302101135 0.25038400292396545
          0.9696230292320251 -0.15063999593257904 0.19271600246429443 0.9704359769821167 -0.1936119943857193 0.1441120058298111
          0.8709110021591187 -0.13947999477386475 -0.47123101353645325 0.9452250003814697 -0.11753600090742111 -0.3045249879360199
          0.9811509847640991 -0.15839199721813202 0.11069799959659576 0.9947100281715393 -0.079865001142025 0.06460200250148773
          0.931082010269165 -0.06303499639034271 -0.35932400822639465 0.8380209803581238 -0.135343998670578 -0.5285859704017639
          -0.7346640229225159 0.6479799747467041 0.2009730041027069 -0.7626069784164429 0.6389110088348389 0.10111100226640701
          -0.869720995426178 0.40564799308776855 0.28112998604774475 -0.8648329973220825 0.4635779857635498 0.19277000427246094
          -0.6375489830970764 0.5789750218391418 0.5082520246505737 -0.8334540128707886 0.4329630136489868 0.3433609902858734
          -0.9272270202636719 0.16998299956321716 0.3337010145187378 -0.9304990172386169 0.1340239942073822 0.34089401364326477
          -0.5513619780540466 0.45104700326919556 0.7018240094184875 -0.7217519879341125 0.14549799263477325 0.6766859889030457
          -0.67774897813797 0.32666000723838806 0.6587479710578918 -0.4464449882507324 0.5285620093345642 0.7220180034637451
          -0.45329299569129944 0.5839930176734924 0.6734079718589783 -0.39256998896598816 0.6634309887886047 0.6369829773902893
          -0.28786399960517883 0.7724120020866394 0.5661399960517883 -0.05898499861359596 0.9041110277175903 0.42320600152015686
          -0.5795199871063232 0.2671299874782562 0.7699339985847473 -0.6116499900817871 0.309253990650177 0.7281799912452698
          -0.5039349794387817 0.3727419972419739 0.7791749835014343 0.5718280076980591 0.7531059980392456 0.3253369927406311
          0.8390489816665649 -0.2494020015001297 0.48352399468421936 0.8574849963188171 -0.24122099578380585 0.45445799827575684
          0.9619619846343994 -0.18698599934577942 0.19916200637817383 0.8906289935112 -0.185371994972229 0.41523098945617676
          0.9233589768409729 -0.20642900466918945 0.3237209916114807 0.9888730049133301 -0.10496500134468079 0.10541500151157379
          0.6217640042304993 0.06031699851155281 0.780879020690918 0.7729390263557434 -0.16244299709796906 0.613332986831665
          0.399946004152298 0.2863839864730835 0.8706480264663696 0.30199000239372253 0.4275360107421875 0.8520650267601013
          0.13606899976730347 0.758545994758606 0.637253999710083 -0.5125979781150818 0.37826600670814514 -0.7708160281181335
          -0.5827199816703796 0.23162999749183655 -0.7789639830589294 -0.5984389781951904 0.0688209980726242 -0.7982069849967957
          -0.5925179719924927 0.6808900237083435 -0.4304789900779724 -0.867717981338501 0.41170600056648254 -0.2785010039806366
          -0.750361979007721 0.47394001483917236 -0.46080100536346436 -0.8790919780731201 0.464819997549057 -0.10554700344800949
          -0.44250398874282837 0.617825984954834 -0.6499850153923035 0.43499401211738586 -0.07288099825382233 -0.8974789977073669
          0.3010450005531311 -0.15967200696468353 -0.9401469826698303 0.1738400012254715 -0.1000949963927269 -0.9796739816665649
          -0.28777098655700684 -0.01983099989593029 -0.9574940204620361 -0.016767000779509544 -0.13052800297737122 -0.991303026676178
          0.5782579779624939 -0.13025100529193878 -0.8053900003433228 0.7136980295181274 -0.15234200656414032 -0.6836860179901123
          -0.46427300572395325 -0.1350730061531067 -0.8753319978713989 -0.4321190118789673 -0.0007609999738633633 -0.9018170237541199
          -0.402446985244751 -0.14689399302005768 -0.9035810232162476 -0.569229006767273 0.030910000205039978 -0.8215979933738708
          0.9936180114746094 -0.07742100208997726 0.08202999830245972 0.9361429810523987 -0.12528499960899353 0.3285430073738098
          0.9899140000343323 -0.088687002658844 0.11047899723052979 0.9826750159263611 -0.08076799660921097 0.16681599617004395
          0.9850929975509644 -0.1082800030708313 0.13366900384426117 0.9846420288085938 -0.06207599863409996 0.16317600011825562
          0.999118983745575 0.03492800146341324 0.02326199971139431 0.6151049733161926 -0.1222900003194809 -0.7789040207862854
          0.6168469786643982 -0.12476900219917297 -0.7771310210227966 0.8000289797782898 -0.08909100294113159 -0.5933099985122681
          0.5174409747123718 -0.15024800598621368 -0.8424249887466431 -0.8454449772834778 0.49970901012420654 0.18845200538635254
          -0.9297890067100525 0.3644050061702728 0.051972001791000366 -0.9408969879150391 0.26156100630760193 0.21517199277877808
          -0.9563890099525452 0.26625099778175354 0.12012699991464615 -0.7797030210494995 0.3043290078639984 0.5472180247306824
          -0.9377359747886658 -0.13672100007534027 0.3193109929561615 -0.9478260278701782 0.030200999230146408 0.3173550069332123
          -0.8615930080413818 -0.03878699988126755 0.5061159729957581 -0.8358970284461975 0.12875600159168243 0.5335710048675537
          -0.8504130244255066 -0.07974100112915039 0.5200380086898804 -0.714739978313446 0.07680600136518478 0.6951599717140198
          -0.750819981098175 0.10894600301980972 0.6514599919319153 -0.8178750276565552 -0.060655999928712845 0.57218998670578
          -0.29982298612594604 0.2909089922904968 0.9085580110549927 -0.3161660134792328 0.46755000948905945 0.8254920244216919
          -0.1295270025730133 0.47898000478744507 0.8682169914245605 -0.0831490010023117 0.7411019802093506 0.6662229895591736
          -0.014926999807357788 0.8451420068740845 0.5343340039253235 -0.5231620073318481 0.15513800084590912 0.8379939794540405
          -0.277989000082016 0.1447959989309311 0.9496080279350281 0.8396369814872742 -0.24260200560092926 0.48595699667930603
          0.8103229999542236 -0.2545180022716522 0.5278220176696777 0.8589919805526733 -0.202005997300148 0.4704529941082001
          0.9189810156822205 -0.09950699657201767 0.381538987159729 0.8864780068397522 -0.1552949994802475 0.43593499064445496
          0.7495499849319458 -0.15758399665355682 0.6429169774055481 0.5275930166244507 -0.04949500039219856 0.8480539917945862
          0.3612839877605438 0.09726200252771378 0.9273689985275269 0.07659699767827988 0.27048200368881226 0.9596729874610901
          0.14245900511741638 0.5318009853363037 0.8348010182380676 -0.7013180255889893 0.02602499909698963 -0.7123730182647705
          -0.7006120085716248 0.13676400482654572 -0.7003129720687866 -0.557371973991394 0.4164249897003174 -0.718280017375946
          -0.5913950204849243 -0.04676499962806702 -0.8050249814987183 -0.6995609998703003 -0.19301700592041016 -0.6880120038986206
          -0.6603789925575256 -0.2636530101299286 -0.7031270265579224 -0.5773149728775024 0.5834479928016663 -0.5712230205535889
          -0.7761899828910828 0.36587899923324585 -0.513480007648468 -0.9168379902839661 0.2021310031414032 -0.34431201219558716
          -0.9263129830360413 0.28542500734329224 -0.24592000246047974 -0.7134529948234558 0.3502970039844513 -0.6068580150604248
          -0.6623690128326416 0.4691540002822876 -0.584089994430542 -0.025767000392079353 0.39340800046920776 -0.9190030097961426
          -0.9718909859657288 0.20652100443840027 -0.11303400248289108 0.40818899869918823 -0.16156600415706635 -0.8984869718551636
          0.17012900114059448 -0.2176090031862259 -0.9610940217971802 -0.09752800315618515 -0.21172499656677246 -0.9724509716033936
          0.5703150033950806 -0.13261699676513672 -0.8106499910354614 -0.5553680062294006 -0.1966239959001541 -0.8080260157585144
          -0.5754539966583252 -0.2298559993505478 -0.7848690152168274 -0.5280179977416992 -0.1049870029091835 -0.8427190184593201
          -0.48496100306510925 -0.1991489976644516 -0.8515589833259583 -0.5211510062217712 -0.20090000331401825 -0.8294820189476013
          0.9473369717597961 -0.050572000443935394 0.3162199854850769 0.9849389791488647 -0.032019998878240585 0.1699099987745285
          0.9820200204849243 0.008615000173449516 0.18857799470424652 0.9537630081176758 0.05063899978995323 0.2962619960308075
          0.9572169780731201 -0.030389999970793724 -0.28777000308036804 0.9715949892997742 0.011111999861896038 0.23639099299907684
          0.23959699273109436 -0.19823099672794342 -0.9504200220108032 0.46856600046157837 -0.16460399329662323 -0.8679580092430115
          0.6758019924163818 -0.15045000612735748 -0.7215650081634521 0.37235599756240845 -0.16978700459003448 -0.9124270081520081
          0.21127499639987946 -0.2194020003080368 -0.9524840116500854 -0.9951419830322266 0.09812600165605545 0.00800899975001812
          -0.9934800267219543 0.02864699997007847 0.1103530004620552 -0.8892130255699158 -0.19370600581169128 0.41446200013160706
          -0.9640349745750427 -0.23674699664115906 0.12077599763870239 -0.9492290019989014 -0.2938919961452484 0.11221499741077423
          -0.9397429823875427 -0.26632800698280334 0.2143629938364029 -0.7639150023460388 -0.06345699727535248 0.6421899795532227
          -0.7702000141143799 -0.15291699767112732 0.6191989779472351 -0.8921260237693787 -0.21642300486564636 0.396575003862381
          -0.6082310080528259 -0.0318869985640049 0.7931190133094788 -0.0734969973564148 0.08009299635887146 0.9940739870071411
          -0.06405699998140335 0.006800000090152025 0.9979230165481567 -0.37703099846839905 -0.01586100086569786 0.9260650277137756
          -0.11293099820613861 -0.03548499941825867 0.9929689764976501 0.8528500199317932 -0.22909599542617798 0.46921399235725403
          0.8719459772109985 -0.18897399306297302 0.45166298747062683 0.8477110266685486 -0.1677670031785965 0.5032299757003784
          0.895272970199585 -0.11493899673223495 0.43043598532676697 0.9387069940567017 -0.015025000087916851 0.3443880081176758
          0.8319730162620544 -0.21373699605464935 0.5119929909706116 0.9188399910926819 -0.07587900012731552 0.38726601004600525
          0.49754899740219116 -0.11770100146532059 0.8594139814376831 0.7154859900474548 -0.13547100126743317 0.6853659749031067
          0.8519700169563293 -0.16188499331474304 0.4979349970817566 0.2102549970149994 -0.04050400108098984 0.9768069982528687
          0.09847799688577652 0.07575800269842148 0.9922509789466858 -0.6355720162391663 0.04876700043678284 -0.7705000042915344
          -0.8040729761123657 -0.025759000331163406 -0.5939729809761047 -0.8222799897193909 -0.16819599270820618 -0.543658971786499
          -0.6136500239372253 -0.30804499983787537 -0.7270089983940125 -0.6774809956550598 -0.3002150058746338 -0.6714839935302734
          -0.6259139776229858 -0.3482159972190857 -0.6978380084037781 -0.6091009974479675 -0.3795750141143799 -0.6963610053062439
          -0.7039939761161804 -0.3067069947719574 -0.6405649781227112 -0.7007579803466797 -0.3396430015563965 -0.627360999584198
          -0.8322409987449646 -0.24932999908924103 -0.4951860010623932 -0.9091029763221741 0.10882999747991562 -0.4021030068397522
          -0.7906950116157532 0.15438799560070038 -0.5924239754676819 0.9657760262489319 0.09683000296354294 -0.2406270056962967
          -0.9556800127029419 0.05102299898862839 -0.28995200991630554 -0.9297209978103638 -0.06299199908971786 -0.3628380000591278
          -0.9759470224380493 0.09819799661636353 -0.19463899731636047 0.7584879994392395 0.08282200247049332 -0.6464030146598816
          -0.9889900088310242 -0.09708700329065323 -0.11167900264263153 -0.14001399278640747 -0.25988999009132385 -0.9554330110549927
          -0.45445799827575684 -0.23026899993419647 -0.8604900240898132 -0.5854629874229431 -0.1790979951620102 -0.7906680107116699
          -0.659421980381012 -0.21539700031280518 -0.7202550172805786 -0.6751629710197449 -0.2719849944114685 -0.685696005821228
          -0.6254649758338928 -0.3003309965133667 -0.720134973526001 -0.5963780283927917 -0.2184399962425232 -0.772409975528717
          0.9651910066604614 0.0037219999358057976 0.2615180015563965 0.8339660167694092 -0.07180000096559525 0.5471240282058716
          0.8613809943199158 -0.024125000461935997 0.5073869824409485 0.9894949793815613 0.007999000139534473 0.14434599876403809
          0.9353520274162292 0.04210999980568886 0.3512040078639984 0.9793699979782104 -0.05250599980354309 0.1951330006122589
          0.9875689744949341 -0.036646999418735504 0.1528560072183609 0.9450979828834534 -0.06716399639844894 -0.3198089897632599
          0.981374979019165 -0.139506995677948 -0.13206399977207184 0.9913370013237 -0.0554639995098114 -0.11906000226736069
          0.1741420030593872 -0.2237969934940338 -0.958952009677887 0.11410699784755707 -0.27928999066352844 -0.9534029960632324
          0.27041301131248474 -0.2043450027704239 -0.9408079981803894 0.23843200504779816 -0.2368839979171753 -0.9418259859085083
          0.4301140010356903 -0.19952400028705597 -0.8804500102996826 0.8576599955558777 -0.13764099776744843 -0.49545300006866455
          0.6125490069389343 -0.15768100321292877 -0.7745460271835327 0.31744998693466187 -0.18491800129413605 -0.9300699830055237
          -0.9498900175094604 -0.3111630082130432 -0.029767999425530434 -0.9512109756469727 -0.30570799112319946 -0.041714999824762344