<?xml version="1.0"?>
<VTKFile type="PolyData" version="0.1" byte_order="LittleEndian" header_type="UInt32" compressor="vtkZLibDataCompressor">
  <PolyData>
    <Piece NumberOfPoints="1434" NumberOfVerts="0" NumberOfLines="0" NumberOfStrips="0" NumberOfPolys="2864">
      <PointData Normals="Normals">
        <DataArray type="Float32" Name="Normals" NumberOfComponents="3" format="ascii" RangeMin="0.99999926895119" RangeMax="1.0000007900959127">
          -0.14233599603176117 -0.18027399480342865 0.9732630252838135 -0.3617689907550812 0.029472000896930695 0.931801974773407
          -0.24991199374198914 -0.15892000496387482 0.9551380276679993 -0.03553599864244461 -0.2884899973869324 0.9568229913711548
          -0.2216850072145462 -0.05463000014424324 0.9735869765281677 0.05553499981760979 -0.22099800407886505 0.973691999912262
          -0.018557000905275345 -0.31672000885009766 0.948337972164154 0.18980799615383148 -0.351298987865448 0.9168220162391663
          -0.41648200154304504 0.003942999988794327 0.9091349840164185 -0.3758719861507416 0.10513599961996078 0.9206879734992981
          -0.5367559790611267 0.1650650054216385 0.8274340033531189 -0.07079599797725677 -0.3224729895591736 0.9439280033111572
          -0.39614900946617126 -0.2367050051689148 0.8871510028839111 -0.24468399584293365 -0.4157229959964752 0.8759589791297913
          0.14594699442386627 -0.45346999168395996 0.8792409896850586 0.10729599744081497 -0.45346799492836 0.8847910165786743
          0.1252249926328659 -0.4861609935760498 0.8648499846458435 -0.15265999734401703 -0.03616100177168846 0.987617015838623
          0.20625300705432892 -0.22144700586795807 0.9531109929084778 -0.00031400000443682075 -0.07895199954509735 0.9968780279159546
          0.26017698645591736 -0.4294709861278534 0.8647909760475159 0.27188700437545776 -0.42033299803733826 0.8656780123710632
          0.33292698860168457 -0.5651900172233582 0.7547979950904846 -0.5064820051193237 -0.04918700084090233 0.860846996307373
          -0.510761022567749 0.20903299748897552 0.8339229822158813 -0.38367000222206116 0.1681549996137619 0.9080309867858887
          -0.21532799303531647 0.10231299698352814 0.9711670279502869 -0.6170060038566589 0.10158900171518326 0.7803739905357361
          -0.6618480086326599 0.26573801040649414 0.7009570002555847 -0.6671500205993652 0.23607000708580017 0.7065280079841614
          -0.00938900001347065 -0.5975549817085266 0.8017730116844177 -0.4504620134830475 -0.30392399430274963 0.8394730091094971
          -0.3079330027103424 -0.5028250217437744 0.8076779842376709 -0.09680599719285965 -0.7053850293159485 0.7021830081939697
          0.14062100648880005 -0.6813139915466309 0.7183570265769958 0.24908599257469177 -0.6210669875144958 0.7431229948997498
          0.41369301080703735 -0.5909209847450256 0.6925830245018005 -0.01862099952995777 0.05194300040602684 0.9984760284423828
          0.24398000538349152 -0.4943619966506958 0.8343139886856079 0.2060070037841797 -0.06956399977207184 0.9760749936103821
          0.25167399644851685 -0.22789199650287628 0.9405990242958069 0.3384380042552948 -0.6688339710235596 0.6619070172309875
          0.32376500964164734 -0.6887149810791016 0.6487280130386353 -0.5191349983215332 -0.11295100301504135 0.8471959829330444
          -0.4329270124435425 0.2591710090637207 0.8633679747581482 -0.5487880110740662 0.3477489948272705 0.7601990103721619
          -0.26048699021339417 0.17203600704669952 0.9500269889831543 -0.6950259804725647 -0.021232999861240387 0.7186700105667114
          -0.6887710094451904 0.17267200350761414 0.7041159868240356 -0.6085370182991028 -0.10027000308036804 0.7871649861335754
          -0.5283349752426147 -0.1660670042037964 0.8326370120048523 -0.717415988445282 0.3905229866504669 0.5768929719924927
          -0.6635410189628601 0.4463599920272827 0.6003959774971008 -0.7451310157775879 0.19439099729061127 0.6379590034484863
          -0.6649240255355835 0.22375799715518951 0.7126070261001587 0.08757700026035309 -0.8010669946670532 0.5921329855918884
          -0.38246700167655945 -0.31898000836372375 0.8671619892120361 -0.3351840078830719 -0.5706700086593628 0.7496579885482788
          -0.12520700693130493 -0.7849519848823547 0.6067739725112915 0.08758199959993362 -0.9014310240745544 0.4239709973335266
          0.30725499987602234 -0.7909820079803467 0.5290960073471069 0.3729889988899231 -0.6799989938735962 0.6312530040740967
          -0.1269409954547882 0.14486700296401978 0.9812750220298767 -0.0055519999004900455 0.01440299954265356 0.9998810291290283
          0.3014189898967743 -0.6308109760284424 0.7149990200996399 0.27042099833488464 -0.39423200488090515 0.8783239722251892
          0.07062800228595734 0.05199899896979332 0.9961469769477844 0.2719399929046631 -0.014260999858379364 0.9622089862823486
          0.3529660105705261 -0.14026500284671783 0.9250630140304565 0.4320929944515228 -0.06972400099039078 0.8991299867630005
          0.3189069926738739 -0.7356110215187073 0.5976409912109375 0.3014880120754242 -0.7459350228309631 0.5938730239868164
          0.3931970000267029 -0.7870429754257202 0.4753510057926178 0.35055699944496155 -0.7337679862976074 0.581974983215332
          -0.29787200689315796 0.2475149929523468 0.9219589829444885 -0.5109090209007263 0.3141399919986725 0.8001800179481506
          -0.43933799862861633 0.30234798789024353 0.845911979675293 -0.5522519946098328 0.34657999873161316 0.7582219839096069
          -0.5894489884376526 0.4813219904899597 0.648751974105835 -0.7156440019607544 0.14236000180244446 0.6838039755821228
          -0.659496009349823 -0.2564789950847626 0.70660001039505 -0.6799719929695129 -0.3476249873638153 0.645596981048584
          -0.7396910190582275 -0.17953799664974213 0.6485549807548523 -0.8045949935913086 -0.04294599965214729 0.5922679901123047
          -0.6015049815177917 -0.3806129992008209 0.7023720145225525 -0.3618580102920532 -0.4346599876880646 0.8246999979019165
          -0.46144500374794006 -0.5372809767723083 0.7059730291366577 -0.8648210167884827 0.15451699495315552 0.4777129888534546
          -0.8174980282783508 0.3348029851913452 0.4686189889907837 -0.7025129795074463 0.5053550004959106 0.5010910034179688
          -0.6576910018920898 0.5567029714584351 0.5074689984321594 -0.6595079898834229 0.5350670218467712 0.527970016002655
          -0.8555819988250732 0.04603400081396103 0.5156170129776001 -0.8401889801025391 0.08936599642038345 0.5348790287971497
          -0.3316499888896942 -0.49219000339508057 0.8048340082168579 -0.394351989030838 -0.6074510216712952 0.6895570158958435
          -0.3099699914455414 -0.7489910125732422 0.5856029987335205 -0.149399995803833 -0.8585789799690247 0.49042999744415283
          0.04553399980068207 -0.9252240061759949 0.3766779899597168 0.07465299963951111 -0.9808300137519836 0.18000000715255737
          0.061921000480651855 -0.9292979836463928 0.3641040027141571 0.23788699507713318 -0.8028500080108643 0.5466650128364563
          0.1900009959936142 -0.7890440225601196 0.5842170119285583 -0.3029699921607971 0.2669230103492737 0.9148560166358948
          -0.0425879992544651 0.185248002409935 0.9817690253257751 0.34923699498176575 -0.5811830163002014 0.7350239753723145
          0.2793079912662506 -0.7237589955329895 0.6309990286827087 0.32753801345825195 -0.7115669846534729 0.6216040253639221
          0.41032499074935913 -0.3817409873008728 0.8281949758529663 0.399728000164032 -0.18926499783992767 0.8968809843063354
          0.2223690003156662 0.07397499680519104 0.9721519947052002 0.42597299814224243 -0.010784000158309937 0.9046710133552551
          0.41504600644111633 -0.07660000026226044 0.9065700173377991 0.49395298957824707 -0.025830000638961792 0.8691049814224243
          0.24420900642871857 -0.8597959876060486 0.4484570026397705 0.38509601354599 -0.8563680052757263 0.343997985124588
          0.35242900252342224 -0.805745005607605 0.47599199414253235 0.24257999658584595 -0.7752509713172913 0.5832170248031616
          0.2546229958534241 -0.7921079993247986 0.5547360181808472 -0.44453099370002747 0.2942360043525696 0.8460599780082703
          -0.5588679909706116 0.37268000841140747 0.7407950162887573 -0.6182649731636047 0.5521280169487 0.5593770146369934
          -0.597678005695343 0.6082630157470703 0.5222989916801453 -0.6521720290184021 0.5442919731140137 0.5276539921760559
          -0.5824699997901917 -0.5782189965248108 0.5713070034980774 -0.7185419797897339 -0.4613960087299347 0.5203949809074402
          -0.5710650086402893 -0.6394510269165039 0.5147690176963806 -0.8049100041389465 -0.31036001443862915 0.5057629942893982
          -0.8997730016708374 -0.09504099935293198 0.4258829951286316 -0.8945000171661377 -0.18781499564647675 0.40570399165153503
          -0.8503819704055786 -0.26363900303840637 0.4553520083427429 -0.4963209927082062 -0.6593719720840454 0.5647069811820984
          -0.3728320002555847 -0.7937819957733154 0.48052701354026794 -0.9180939793586731 0.008324000053107738 0.39627501368522644
          -0.9213929772377014 0.1623699963092804 0.35308799147605896 -0.8380600214004517 0.3541390001773834 0.4150190055370331
          -0.669048011302948 0.5101860165596008 0.540448009967804 -0.7478340268135071 0.46764498949050903 0.47122499346733093
          -0.6769670248031616 0.5858370065689087 0.4455460011959076 -0.6362090110778809 0.5432590246200562 0.547819972038269
          -0.20027199387550354 -0.9117349982261658 0.3586519956588745 -0.01577099971473217 -0.9800530076026917 0.1981080025434494
          -0.013797000050544739 -0.9893159866333008 0.1451359987258911 0.00041199999395757914 -0.9879639744758606 0.15468500554561615
          -0.1082649976015091 -0.9485729932785034 0.29747098684310913 0.0561240017414093 -0.8953379988670349 0.44183701276779175
          -0.3964020013809204 0.33149999380111694 0.8561390042304993 -0.22127500176429749 0.3072679936885834 0.9255399703979492
          0.15737199783325195 0.16060799360275269 0.9743919968605042 0.5101860165596008 -0.3452000021934509 0.7877479791641235
          0.46827399730682373 -0.5436969995498657 0.6965000033378601 0.5426530241966248 -0.4590420126914978 0.7034260034561157
          0.3675509989261627 -0.666379988193512 0.6487249732017517 0.5117610096931458 -0.11651799827814102 0.8511899709701538
          0.39081600308418274 0.04259499907493591 0.9194830060005188 0.42545101046562195 -0.05502599850296974 0.9033070206642151
          0.03433699905872345 -0.9690600037574768 0.2444240003824234 0.29498401284217834 -0.9168750047683716 0.2689340114593506
          0.269663006067276 -0.9357119798660278 0.2274329960346222 0.393218994140625 -0.9088370203971863 0.13926300406455994
          0.13707999885082245 -0.8329229950904846 0.5361419916152954 0.383338987827301 -0.6662049889564514 0.6397050023078918
          0.216170996427536 -0.7393329739570618 0.6376969814300537 -0.5103899836540222 0.4280630052089691 0.7458310127258301
          -0.6369060277938843 0.5278130173683167 0.5619289875030518 -0.6385130286216736 0.49268800020217896 0.5912349820137024
          -0.6233239769935608 0.6545510292053223 0.42781999707221985 -0.43308699131011963 -0.7980329990386963 0.41902199387550354
          -0.4546709954738617 -0.7629250288009644 0.4595870077610016 -0.7418239712715149 -0.6051639914512634 0.28891798853874207
          -0.5619770288467407 -0.7522519826889038 0.34394699335098267 -0.8282240033149719 -0.4768190085887909 0.2944299876689911
          -0.8603780269622803 -0.2452239990234375 0.44678300619125366 -0.8945080041885376 -0.3142099976539612 0.3180049955844879
          -0.8978350162506104 -0.34087100625038147 0.27874699234962463 -0.1542080044746399 -0.9734640121459961 0.1690790057182312
          -0.8770849704742432 -0.11816199868917465 0.4655750095844269 -0.9563949704170227 -0.02574099972844124 0.29093998670578003
          -0.8968049883842468 0.009202999994158745 0.4423309862613678 -0.951341986656189 0.05842699855566025 0.30254799127578735
          -0.9250410199165344 0.19722799956798553 0.3246529996395111 -0.8426259756088257 0.36808401346206665 0.39305898547172546
          -0.7198160290718079 0.4965609908103943 0.48506900668144226 0.9621239900588989 0.19481000304222107 0.19070099294185638
          -0.09073799848556519 0.70209801197052 0.7062749862670898 -0.7795079946517944 0.5175939798355103 0.35279300808906555
          -0.5702630281448364 0.7260739803314209 0.384209007024765 -0.7246270179748535 0.6289600133895874 0.2816469967365265
          -0.6182399988174438 0.7277969717979431 0.29679998755455017 -0.6308320164680481 0.4174019992351532 0.6540840268135071
          -0.5876860022544861 0.629863977432251 0.5078349709510803 0.001689000055193901 -0.974228024482727 0.2255609929561615
          -0.147256001830101 -0.9458850026130676 0.28916800022125244 -0.0190420001745224 -0.9825490117073059 0.18502399325370789
          -0.08524800091981888 -0.9331979751586914 0.34910398721694946 -0.051538001745939255 -0.8568810224533081 0.5129320025444031
          0.21080000698566437 -0.9719650149345398 0.1041489988565445 -0.1540980041027069 -0.926967978477478 0.34202900528907776
          -0.41571199893951416 0.4342139959335327 0.7991510033607483 0.08011499792337418 0.30527999997138977 0.948885977268219
          -0.10861700028181076 0.4193730056285858 0.9012929797172546 -0.2949180006980896 0.4850809872150421 0.8232370018959045
          0.31621798872947693 0.14430999755859375 0.9376459717750549 0.6241999864578247 -0.09165000170469284 0.7758700251579285
          0.5890470147132874 -0.2831589877605438 0.7568650245666504 0.659421980381012 -0.26999300718307495 0.7016170024871826
          0.6395509839057922 -0.2662619948387146 0.7211650013923645 0.6937100291252136 -0.0983550027012825 0.7135069966316223
          0.626829981803894 -0.3651820123195648 0.6882780194282532 0.4983919858932495 0.01716499961912632 0.866782009601593
          0.6256790161132812 -0.012258999980986118 0.7799839973449707 -0.08721700310707092 -0.9265199899673462 0.36599600315093994
          0.09838899970054626 -0.9657040238380432 0.24028299748897552 0.26575401425361633 -0.9616990089416504 -0.06715399771928787
          0.28415200114250183 -0.9571920037269592 0.05513700097799301 0.18388700485229492 -0.9171180129051208 0.35366499423980713
          0.08395999670028687 -0.9898399710655212 0.11475200206041336 0.09661500155925751 -0.9930930137634277 0.06657300144433975
          0.24712300300598145 -0.9643290042877197 -0.09487300366163254 0.10442300140857697 -0.7957180142402649 0.5965970158576965
          0.15614500641822815 -0.8699100017547607 0.4678420126438141 0.4390760064125061 -0.5511469841003418 0.7095410227775574
          0.558646023273468 -0.42455700039863586 0.7125070095062256 0.2383899986743927 -0.8541899919509888 0.46209201216697693
          0.28454598784446716 -0.7553840279579163 0.5902780294418335 -0.5326279997825623 0.49668899178504944 0.6852790117263794
          -0.6098840236663818 0.6419619917869568 0.4646799862384796 -0.5632349848747253 0.5716069936752319 0.5966839790344238
          -0.5888209939002991 0.5750030279159546 0.56803297996521 -0.5053269863128662 0.7715449929237366 0.3864760100841522
          -0.45995599031448364 0.8539749979972839 0.2432429939508438 -0.4316079914569855 0.8736510276794434 0.2246060073375702
          -0.6325110197067261 0.6886630058288574 0.35450300574302673 -0.5305240154266357 0.8256880044937134 0.19178900122642517
          -0.3308350145816803 -0.8890269994735718 0.31650999188423157 -0.6467459797859192 -0.7611479759216309 0.0487230010330677
          -0.5694310069084167 -0.8122760057449341 0.12631499767303467 -0.42851099371910095 -0.8891350030899048 0.16067799925804138
          -0.7808200120925903 -0.5413249731063843 0.3119100034236908 -0.7621740102767944 -0.4320499897003174 0.48210299015045166
          -0.73744797706604 -0.5287320017814636 0.4202539920806885 -0.8289939761161804 -0.31944701075553894 0.45904600620269775
          -0.7956370115280151 -0.38961100578308105 0.4638589918613434 0.08053000271320343 -0.9869499802589417 0.1394450068473816
          -0.012294000014662743 -0.9977030158042908 0.06661099940538406 -0.7822350263595581 -0.39423999190330505 0.4823729991912842
          -0.8572880029678345 -0.14624300599098206 0.49362900853157043 -0.9059479832649231 -0.12294500321149826 0.4051460027694702
          -0.9781469702720642 -0.17562399804592133 0.11128900200128555 -0.9395179748535156 -0.338250994682312 0.053784001618623734
          -0.9291070103645325 -0.24990400671958923 0.27259400486946106 -0.8991469740867615 -0.050060998648405075 0.4347749948501587
          -0.8771160244941711 -0.1801609992980957 0.44520801305770874 -0.9605110287666321 0.11875899881124496 0.25162601470947266
          -0.9837939739227295 0.021215999498963356 0.17803999781608582 -0.9845079779624939 -0.08389800041913986 0.15396399796009064
          -0.8750060200691223 0.33838099241256714 0.3462130129337311 -0.9401479959487915 0.19607700407505035 0.27870500087738037
          -0.9489690065383911 0.16548599302768707 0.26846298575401306 -0.9245010018348694 0.2556059956550598 0.28277701139450073
          0.7619950175285339 0.5013260245323181 0.4099229872226715 -0.8457890152931213 0.41137900948524475 0.33971700072288513
          -0.8503469824790955 0.4386869966983795 0.29062700271606445 -0.7453950047492981 0.5302609801292419 0.4039919972419739
          -0.8307629823684692 0.523597002029419 0.18888700008392334 -0.48680099844932556 0.8533070087432861 0.18679200112819672
          -0.545877993106842 0.8164389729499817 0.18826599419116974 -0.703220009803772 0.6901559829711914 0.17078199982643127
          -0.14512999355793 -0.8157879710197449 0.559844970703125 -0.015647999942302704 -0.8054720163345337 0.5924270153045654
          -0.16451500356197357 -0.9766380190849304 0.1382479965686798 0.537227988243103 -0.8370410203933716 0.10367400199174881
          -0.3015879988670349 -0.883247971534729 0.3590500056743622 -0.16850300133228302 -0.7634459733963013 0.6235030293464661
          -0.06046200171113014 -0.7161759734153748 0.6952959895133972 0.8325570225715637 -0.5518609881401062 0.047936998307704926
          -0.4240730106830597 0.5575950145721436 0.7136179804801941 0.3891940116882324 0.2605690062046051 0.8835340142250061
          0.12278900295495987 0.34964901208877563 0.9287999868392944 -0.0005990000208839774 0.44302400946617126 0.8965089917182922
          -0.3712979853153229 0.5795570015907288 0.7254319787025452 0.052577998489141464 0.5568850040435791 0.8289240002632141
          -0.24539099633693695 0.610414981842041 0.7531110048294067 0.5099300146102905 0.09764400124549866 0.8546559810638428
          0.4226439893245697 0.04954899847507477 0.9049410223960876 0.7594079971313477 0.0127379996702075 0.6504899859428406
          0.711933970451355 -0.07212399691343307 0.6985329985618591 0.7402439713478088 -0.011718000285327435 0.6722360253334045
          0.6926609873771667 -0.09980899840593338 0.7143250107765198 0.7192959785461426 0.07416900247335434 0.690733015537262
          0.7763379812240601 -0.04154200106859207 0.6289470195770264 0.6652349829673767 -0.009085999801754951 0.7465789914131165
          0.5826770067214966 0.08916399627923965 0.8077970147132874 0.5667660236358643 0.06122199818491936 0.8216009736061096
          0.5579550266265869 0.059133000671863556 0.8277620077133179 0.19339999556541443 -0.8940150141716003 0.4041459858417511
          0.3411259949207306 -0.9113749861717224 0.23027899861335754 0.2979699969291687 -0.9488700032234192 -0.10420600324869156
          0.22919300198554993 -0.8869950175285339 -0.40088701248168945 0.21630099415779114 -0.8899250030517578 -0.40155598521232605
          0.1675499975681305 -0.9221069812774658 0.3487760126590729 0.0684640035033226 -0.9969549775123596 -0.03733000159263611
          0.01703999936580658 -0.9909340143203735 -0.13326400518417358 -0.06981600075960159 -0.9960709810256958 -0.05448099970817566
          0.030433999374508858 -0.9728890061378479 0.22926199436187744 0.11545299738645554 -0.9248530268669128 0.36237698793411255
          0.04867799952626228 -0.9640899896621704 -0.26107698678970337 0.5630649924278259 -0.29933199286460876 0.7702980041503906
          0.5020089745521545 -0.2776550054550171 0.8190820217132568 0.4061799943447113 -0.5036470293998718 0.7624679803848267
          0.18330200016498566 -0.8857290148735046 0.4264790117740631 0.3470720052719116 -0.7338219881057739 0.5839920043945312
          0.4498690068721771 -0.5190669894218445 0.726764976978302 -0.5041109919548035 0.6412590146064758 0.5784969925880432
          -0.3880470097064972 0.9170420169830322 0.09194499999284744 -0.45185399055480957 0.8853189945220947 0.10971999913454056
          -0.5122100114822388 0.6992419958114624 0.49869999289512634 -0.5550900101661682 0.805001974105835 0.2093989998102188
          -0.2246759980916977 -0.9725469946861267 0.06061000004410744 -0.4095200002193451 -0.9083250164985657 -0.08508100360631943
          -0.6868630051612854 -0.6775259971618652 0.26301899552345276 -0.4940679967403412 -0.8542119860649109 0.16192199289798737
          -0.31123998761177063 -0.949533998966217 -0.03890899941325188 -0.6371880173683167 -0.6916630268096924 0.3399919867515564
          -0.7136279940605164 -0.6467819809913635 0.2690880000591278 -0.5086349844932556 -0.8594059944152832 0.052076999098062515
          -0.759289026260376 -0.5458250045776367 0.35433900356292725 -0.6945850253105164 -0.6034790277481079 0.391618013381958
          0.8143560290336609 -0.5803549885749817 0.0034020000603049994 -0.7552109956741333 -0.44735801219940186 0.47909000515937805
          -0.5716519951820374 -0.7504209876060486 0.33178600668907166 -0.9224039912223816 -0.16321499645709991 0.3500460088253021
          -0.8546640276908875 -0.4424700140953064 0.27160701155662537 -0.8909459710121155 -0.35533401370048523 0.2827579975128174
          -0.8854770064353943 -0.4498549997806549 -0.11645200103521347 -0.9338970184326172 -0.3431839942932129 -0.1003049984574318
          -0.7452080249786377 -0.6361569762229919 -0.19992199540138245 -0.8496990203857422 -0.5217170119285583 0.07631299644708633
          -0.917631983757019 -0.24112200736999512 0.31593000888824463 -0.7542110085487366 -0.5715799927711487 0.32320600748062134
          -0.9923509955406189 -0.031029999256134033 0.11948099732398987 -0.9872959852218628 -0.15660600364208221 -0.026869000867009163
          -0.8989999890327454 0.3748350143432617 0.22648699581623077 -0.9735159873962402 0.16952300071716309 0.15338900685310364
          -0.9394749999046326 0.27510398626327515 0.20421800017356873 -0.989192008972168 0.024323999881744385 0.14459699392318726
          -0.9067639708518982 0.4125010073184967 0.08729799836874008 -0.8434789776802063 0.5369719862937927 0.014322999864816666
          -0.6625970005989075 0.7467600107192993 0.05757499858736992 -0.66354900598526 0.7232850193977356 0.191211998462677
          -0.44496700167655945 0.8919479846954346 0.08021099865436554 -0.7711619734764099 0.6262570023536682 0.11450900137424469
          0.1420689970254898 -0.7839699983596802 0.6043239831924438 0.24469299614429474 -0.8185999989509583 0.5196340084075928
          -0.31934601068496704 -0.9475740194320679 -0.011025999672710896 -0.4604420065879822 -0.8676109910011292 0.18773199617862701
          -0.13812799751758575 -0.9855970144271851 -0.09756900370121002 -0.3969520032405853 -0.8100219964981079 0.43161800503730774
          -0.2882019877433777 -0.8025469779968262 0.5223590135574341 -0.10057300329208374 -0.8101670145988464 0.5775070190429688
          0.08890499919652939 -0.8968330025672913 0.43334299325942993 -0.3906500041484833 0.7093279957771301 0.5867260098457336
          -0.38921600580215454 0.6840019822120667 0.6169700026512146 0.42117199301719666 0.3728010058403015 0.8268210291862488
          0.8111389875411987 0.159744992852211 0.5626140236854553 -0.10450000315904617 0.7346559762954712 0.6703429818153381
          0.3286150097846985 0.5134149789810181 0.7927280068397522 0.22944900393486023 0.6709210276603699 0.7051370143890381
          0.7639170289039612 -0.06640399992465973 0.6418889760971069 0.7738580107688904 0.07212600111961365 0.629239022731781
          0.7863019704818726 0.07730299979448318 0.6129879951477051 0.7204570174217224 0.10902799665927887 0.6848750114440918
          0.6955580115318298 0.12401799857616425 0.7076860070228577 0.6601030230522156 -0.08615600317716599 0.7462170124053955
          0.7491790056228638 0.10399500280618668 0.6541529893875122 0.7721920013427734 -0.011912999674677849 0.6352779865264893
          0.757968008518219 -0.09231200069189072 0.6457269787788391 0.7650589942932129 -0.13800199329853058 0.6290000081062317
          0.6625789999961853 0.08377200365066528 0.7442929744720459 0.707207977771759 0.004017000086605549 0.7069939970970154
          0.6300920248031616 0.03896699845790863 0.7755420207977295 0.5577250123023987 0.14527100324630737 0.8172140121459961
          0.27730101346969604 -0.9219859838485718 0.2702699899673462 0.19714200496673584 -0.9798269867897034 0.03277600184082985
          0.23040500283241272 -0.9314450025558472 -0.2816449999809265 0.11869499832391739 -0.882606029510498 -0.4548819959163666
          0.1626179963350296 -0.8439279794692993 -0.5112159848213196 0.03350299969315529 -0.9119210243225098 -0.40899500250816345
          0.07980900257825851 -0.8622840046882629 -0.5000969767570496 -0.027698000892996788 -0.9789209961891174 -0.20235200226306915
          -0.05935699865221977 -0.9844620227813721 -0.16526000201702118 -0.13651399314403534 -0.9865710139274597 -0.08967699855566025
          -0.07210099697113037 -0.9965680241584778 0.04067400097846985 0.30371999740600586 -0.8766760230064392 0.37308698892593384
          0.3096120059490204 -0.8900430202484131 0.3346099853515625 0.13733400404453278 -0.9621430039405823 0.23541699349880219
          -0.09558100253343582 -0.88885098695755 -0.4481169879436493 -0.13289600610733032 -0.8963879942893982 -0.42287999391555786
          -0.09655199944972992 -0.9521750211715698 -0.28989800810813904 0.5869830250740051 -0.0919250026345253 0.804364025592804
          0.5344129800796509 -0.26569101214408875 0.8023779988288879 0.57498699426651 -0.005609999876469374 0.8181440234184265
          0.3648430109024048 -0.8261680006980896 0.4293450117111206 0.6119059920310974 -0.48611700534820557 0.6239079833030701
          0.5448039770126343 -0.6750710010528564 0.4974609911441803 0.6321049928665161 -0.28034499287605286 0.7223920226097107
          -0.5767930150032043 0.8071029782295227 0.1260710060596466 -0.48269200325012207 0.8415960073471069 0.24233099818229675
          -0.6316120028495789 0.76698899269104 0.11311399936676025 -0.528659999370575 0.8041689991950989 0.27171599864959717
          -0.4486809968948364 0.7928289771080017 0.4124400019645691 -0.28927499055862427 -0.9462810158729553 -0.14447300136089325
          -0.3602609932422638 -0.9303929805755615 0.06768699735403061 -0.20803800225257874 -0.9741690158843994 -0.0878399983048439
          -0.5228360295295715 -0.835545003414154 0.16884200274944305 -0.28800898790359497 -0.9558929800987244 0.05762000009417534
          -0.5670710206031799 -0.7771700024604797 0.2728320062160492 -0.33880698680877686 -0.9348539710044861 0.10610699653625488
          -0.4242129921913147 -0.8984889984130859 0.11296000331640244 -0.7110000252723694 -0.6634179949760437 0.23314400017261505
          -0.6605550050735474 -0.7505040168762207 -0.02027899958193302 -0.7699049711227417 -0.564661979675293 -0.2973270118236542
          -0.9689930081367493 -0.23117099702358246 -0.08725100010633469 -0.8897550106048584 -0.40751099586486816 -0.20559899508953094
          -0.7785940170288086 -0.5520529747009277 -0.29837700724601746 -0.5754789710044861 -0.7396659851074219 -0.3488810062408447
          -0.4788280129432678 -0.8365010023117065 -0.2664400041103363 -0.9872300028800964 -0.14750899374485016 -0.0601469986140728
          -0.9705439805984497 -0.2351350039243698 -0.05250300094485283 -0.940542995929718 0.33883801102638245 -0.023819999769330025
          -0.965811014175415 0.2592470049858093 -0.0004419999895617366 -0.9828580021858215 0.10114499926567078 -0.1541450023651123
          -0.9938700199127197 -0.07822199910879135 -0.07812599837779999 -0.8834260106086731 0.41416600346565247 -0.2191449999809265
          -0.8119819760322571 0.5077260136604309 -0.28792300820350647 -0.736100971698761 0.6229739785194397 -0.2646850049495697
          -0.6048240065574646 0.7616209983825684 -0.23263999819755554 -0.4545069932937622 0.8869479894638062 0.08214099705219269
          -0.5311160087585449 0.8371679782867432 -0.1306370049715042 -0.46220898628234863 -0.8851400017738342 -0.053762998431921005
          -0.5642430186271667 -0.8044270277023315 0.18581299483776093 -0.4818609952926636 -0.8615639805793762 0.15974299609661102
          -0.4598590135574341 -0.8756120204925537 0.14776299893856049 -0.40129899978637695 -0.8365970253944397 0.3729130029678345
          -0.1630460023880005 -0.9023330211639404 0.3990119993686676 -0.32279399037361145 -0.908191978931427 0.26644399762153625
          0.011858999729156494 -0.9591910243034363 0.28251099586486816 0.14617499709129333 -0.9880880117416382 -0.048110999166965485
          -0.21667799353599548 0.8264390230178833 0.5196629762649536 -0.30993300676345825 0.847806990146637 0.4303080141544342
          0.3878909945487976 0.3675439953804016 0.8452529907226562 0.9075120091438293 0.1366560012102127 0.39717400074005127
          0.5559509992599487 0.2129179984331131 0.8034830093383789 0.9269819855690002 0.11888200044631958 0.3557699918746948
          0.694832980632782 0.19494399428367615 0.6922460198402405 0.0718579962849617 0.8196319937705994 0.5683649778366089
          0.5787510275840759 0.345674991607666 0.738618016242981 0.3488309979438782 0.6178820133209229 0.7046549916267395
          0.3213709890842438 0.7559850215911865 0.570268988609314 0.7636979818344116 -0.08081299811601639 0.6404950022697449