<?xml version="1.0"?>
<VTKFile type="PolyData" version="0.1" byte_order="LittleEndian" header_type="UInt32" compressor="vtkZLibDataCompressor">
  <PolyData>
    <Piece NumberOfPoints="1133" NumberOfVerts="0" NumberOfLines="0" NumberOfStrips="0" NumberOfPolys="2262">
      <PointData Normals="Normals">
        <DataArray type="Float32" Name="Normals" NumberOfComponents="3" format="ascii" RangeMin="0.9999993103874604" RangeMax="1.0000007383407477">
          0.9706680178642273 -0.05855000019073486 0.23318399488925934 0.9756190180778503 -0.07463999837636948 0.206386998295784
          0.9728909730911255 -0.08739099651575089 0.21411700546741486 0.9933350086212158 -0.03180399909615517 0.11078999936580658
          0.9884359836578369 -0.0288929995149374 0.14885999262332916 0.9541950225830078 0.017212999984622 0.2986910045146942
          0.9750459790229797 -0.11428400129079819 0.1903270035982132 0.9918389916419983 -0.06270699948072433 0.11101099848747253
          0.9875789880752563 -0.11018899828195572 0.11201199889183044 0.9954599738121033 -0.042660001665353775 0.08508999645709991
          0.9972000122070312 -0.055156998336315155 0.0504940003156662 0.9765660166740417 -0.07392500340938568 0.20212499797344208
          0.9957680106163025 -0.04231699928641319 0.08158399909734726 0.9549070000648499 -0.12178199738264084 0.2707799971103668
          0.9498990178108215 -0.13766199350357056 0.28060799837112427 0.9694219827651978 -0.16164299845695496 0.1846420019865036
          0.9756410121917725 0.01683799922466278 0.2187259942293167 0.9989259839057922 -0.040824998170137405 -0.021933000534772873
          0.9964100122451782 -0.03209000080823898 -0.07834400236606598 0.9972689747810364 -0.07233399897813797 0.014897000044584274
          0.9470540285110474 0.03455999866127968 0.3192090094089508 0.9879930019378662 -0.10527600347995758 -0.11307799816131592
          0.9992380142211914 -0.030647000297904015 0.024173999205231667 0.9777640104293823 -0.16560600697994232 0.12865500152111053
          0.9941650032997131 -0.09304899722337723 0.05456500127911568 0.9872919917106628 -0.14799299836158752 0.057906001806259155
          0.9997310042381287 -0.021229999139904976 0.009383000433444977 0.9862290024757385 -0.08717299997806549 0.1405470073223114
          0.9989110231399536 -0.019989000633358955 0.04216400161385536 0.9415109753608704 0.012671000324189663 0.3367449939250946
          0.9981880187988281 0.0011869999580085278 0.06016400083899498 0.9997249841690063 -0.016039999201893806 0.01711300015449524
          0.9654759764671326 -0.144678995013237 0.21661899983882904 0.9656710028648376 -0.1967640072107315 0.16959600150585175
          0.9503539800643921 -0.15041999518871307 0.27239999175071716 0.9915030002593994 -0.023617999628186226 0.127919003367424
          0.993120014667511 0.014190999791026115 0.11624199897050858 0.9515560269355774 0.060235001146793365 0.3015170097351074
          0.9910500049591064 -0.0585159994661808 0.11997999995946884 0.9902240037918091 -0.10444299876689911 0.09245499968528748
          0.9981279969215393 -0.022174999117851257 0.05699000135064125 0.9911209940910339 -0.025953000411391258 0.13040199875831604
          0.9865310192108154 -0.16091300547122955 -0.029394999146461487 0.9787920117378235 -0.09446000307798386 -0.1817760020494461
          0.9883840084075928 -0.10809099674224854 -0.10683300346136093 0.9708200097084045 -0.15153799951076508 -0.18586300313472748
          0.9788089990615845 -0.04988199844956398 -0.19860699772834778 0.9818850159645081 -0.1847749948501587 0.04194699972867966
          0.9754199981689453 -0.1378290057182312 0.1719290018081665 0.9999510049819946 -0.0035620001144707203 0.009248999878764153
          0.9352759718894958 -0.12086500227451324 0.3326430022716522 0.9504209756851196 -0.04253700003027916 0.3080419898033142
          0.9985529780387878 -0.006194000132381916 0.05342400074005127 0.7757030129432678 0.013869999907910824 0.6309450268745422
          0.7280669808387756 -0.06469099968671799 0.6824470162391663 0.7283710241317749 0.016140999272465706 0.6849930286407471
          0.6448079943656921 0.08994700014591217 0.7590339779853821 0.981357991695404 -0.10509900003671646 0.1609089970588684
          0.9673780202865601 -0.14442899823188782 0.20813299715518951 0.8869240283966064 -0.07154200226068497 0.45634201169013977
          0.8655449748039246 -0.08374900370836258 0.4937790036201477 0.9910269975662231 -0.0832810029387474 0.10454700142145157
          0.9531720280647278 0.026643000543117523 0.30125200748443604 0.9869130253791809 -0.02273000031709671 -0.1596429944038391
          0.9986039996147156 0.013410000130534172 0.05108499899506569 0.9661380052566528 0.058194998651742935 0.25137799978256226
          0.9781209826469421 -0.03586599975824356 -0.2049199938774109 0.9284840226173401 0.07004199922084808 0.3647080063819885
          0.9081670045852661 -0.07706999778747559 0.4114519953727722 0.9841520190238953 -0.11969699710607529 0.1308329999446869
          0.9887959957122803 -0.04334399849176407 0.14283999800682068 0.8771970272064209 -0.04426899924874306 0.4780850112438202
          0.9832760095596313 -0.1820099949836731 0.006372000090777874 0.9822049736976624 -0.1633549928665161 -0.09267599880695343
          0.9760040044784546 -0.2132750004529953 -0.043928999453783035 0.9810280203819275 -0.1812860071659088 -0.06870000064373016
          0.9911749958992004 -0.10981599986553192 -0.07424800097942352 0.9797220230102539 -0.10773999989032745 -0.1689320057630539
          0.9955250024795532 -0.08696500211954117 -0.036977000534534454 0.9931650161743164 -0.10641799867153168 -0.04793800041079521
          0.989205002784729 -0.06602100282907486 -0.13081899285316467 0.9706259965896606 -0.08098000288009644 -0.2265540063381195
          0.9887800216674805 -0.12173900008201599 0.08656000345945358 0.9703999757766724 -0.08635900169610977 0.22553500533103943
          0.9728649854660034 -0.06761600077152252 0.2212740033864975 0.8728619813919067 -0.12418399751186371 0.471900999546051
          0.5112640261650085 -0.03566500172019005 0.8586829900741577 0.402756005525589 -0.03499099984765053 0.9146379828453064
          0.5697789788246155 0.018716000020503998 0.8215849995613098 0.4803540110588074 -0.0675399973988533 0.8744699954986572
          0.4298189878463745 -0.03807999938726425 0.9021120071411133 0.7218400239944458 -0.06491000205278397 0.6890090107917786
          0.2564390003681183 0.05618299916386604 0.96492600440979 0.4075450003147125 0.024762999266386032 0.9128490090370178
          0.34530800580978394 0.05204999819397926 0.9370449781417847 0.9685980081558228 -0.11583899706602097 0.2199999988079071
          0.9899759888648987 0.09429500252008438 0.10515200346708298 0.9843069911003113 -0.015703000128269196 0.17576299607753754
          0.9239969849586487 -0.13586099445819855 0.357450008392334 0.9735850095748901 -0.0475660003721714 0.22331300377845764
          0.8278399705886841 -0.06220199912786484 0.5575050115585327 0.8449169993400574 -0.0059819999150931835 0.5348629951477051
          0.9414389729499817 0.001664999988861382 0.3371790051460266 0.919439971446991 0.13935500383377075 0.3677099943161011
          0.9179030060768127 0.09550599753856659 0.38514000177383423 0.9874449968338013 -0.00853700004518032 -0.15773500502109528
          0.9370589852333069 -0.06309100240468979 -0.343423992395401 0.9346640110015869 -0.01551700010895729 -0.35519298911094666
          0.9817699790000916 0.047109998762607574 0.18414099514484406 0.6693900227546692 -0.038697998970746994 0.7419019937515259
          0.4912619888782501 -0.05646799877285957 0.8691800236701965 0.6952279806137085 -0.04736899957060814 0.7172269821166992
          0.4598740041255951 0.019703999161720276 0.8877649903297424 0.9891549944877625 -0.13510699570178986 -0.0575999990105629
          0.9834240078926086 -0.1710509955883026 -0.06015099957585335 0.9702180027961731 -0.18009300529956818 -0.1619970053434372
          0.9561589956283569 -0.24330200254917145 -0.16298599541187286 0.9690260291099548 -0.17282499372959137 -0.17640900611877441
          0.984486997127533 -0.10944899916648865 -0.13713300228118896 0.9909359812736511 -0.12377800047397614 -0.05220099911093712
          0.9860429763793945 -0.09872200340032578 -0.1340630054473877 0.984466016292572 -0.12823599576950073 -0.11992400139570236
          0.9962509870529175 -0.08627799898386002 0.0063240001909434795 0.9962869882583618 -0.0741019994020462 0.04382900148630142
          0.9554870128631592 -0.08253099769353867 -0.28325599431991577 0.987733006477356 -0.10608500242233276 -0.1145860031247139
          0.9910240173339844 -0.1116119995713234 -0.07357899844646454 0.9994120001792908 -0.0053170002065598965 0.03387200087308884
          0.9937250018119812 -0.030993999913334846 0.10746999830007553 0.9901329874992371 -0.042187001556158066 0.1336289942264557
          0.995881974697113 -0.04613199830055237 0.07804600149393082 0.06804399937391281 0.014498000033199787 0.9975770115852356
          0.02228900045156479 0.04667399823665619 0.9986609816551208 0.16583600640296936 -0.041423000395298004 0.9852830171585083
          0.08040600270032883 -0.059032998979091644 0.9950129985809326 0.0416410006582737 -0.028075000271201134 0.9987379908561707
          0.2474849969148636 -0.04165700078010559 0.9679960012435913 0.6137580275535583 0.03167000040411949 0.7888590097427368
          0.43948599696159363 -0.011138999834656715 0.8981810212135315 0.14869500696659088 -0.003998999949544668 0.9888749718666077
          0.24752399325370789 -0.07151500135660172 0.9662389755249023 -0.05645199865102768 -0.01848199963569641 0.99823397397995
          0.985722005367279 -0.08089199662208557 0.14767399430274963 0.95517498254776 0.021337000653147697 0.29527100920677185
          0.8220369815826416 0.5607749819755554 0.09892900288105011 0.9418659806251526 0.33542200922966003 0.01950100064277649
          0.9517260193824768 0.23918400704860687 0.1923770010471344 0.9486380219459534 0.20853400230407715 0.23790599405765533
          0.9234780073165894 0.3472500145435333 0.16311399638652802 0.9596710205078125 0.19084599614143372 0.20642200112342834
          0.865634024143219 0.015196999534964561 0.5004469752311707 0.6866130232810974 0.07646600157022476 0.7229899764060974
          0.7990099787712097 0.20559200644493103 0.5650799870491028 0.7954739928245544 0.021831000223755836 0.6055939793586731
          0.9444469809532166 0.18558700382709503 0.27125099301338196 0.9516929984092712 0.16267000138759613 0.2604210078716278
          0.8944470286369324 0.23580700159072876 0.3799470067024231 0.9499449729919434 0.11169300228357315 0.29177001118659973
          0.9614560008049011 -0.02706800028681755 -0.2736220061779022 0.993241012096405 0.012501000426709652 -0.11539500206708908
          0.9208040237426758 -0.05079999938607216 -0.3867030143737793 0.9319850206375122 -0.08050300180912018 -0.35344499349594116
          0.9616479873657227 -0.09159500151872635 -0.25854000449180603 0.9479849934577942 0.03453600034117699 -0.3164359927177429
          0.9267269968986511 -0.0012659999774768949 -0.37573298811912537 0.9958130121231079 0.06303200125694275 0.06620900332927704
          0.6060510277748108 0.002807999961078167 0.7954210042953491 0.14371000230312347 0.02834399975836277 0.9892140030860901
          0.2280990034341812 0.025359999388456345 0.9733080267906189 0.9902790188789368 -0.12440799921751022 -0.06221200153231621
          0.9438329935073853 -0.17746800184249878 -0.2787199914455414 0.9621660113334656 -0.17016799747943878 -0.21279099583625793
          0.9582570195198059 -0.219308003783226 -0.18343299627304077 0.9384719729423523 -0.24105599522590637 -0.24730999767780304
          0.9890159964561462 -0.012582000344991684 -0.14727599918842316 0.972836971282959 0.05206599831581116 -0.22555899620056152
          0.961887001991272 -0.20700900256633759 -0.1786620020866394 0.988739013671875 -0.01722699962556362 -0.1486549973487854
          0.986178994178772 -0.11333200335502625 -0.12085700035095215 0.9983220100402832 -0.0463859997689724 -0.03466600179672241
          0.9917110204696655 -0.07852599769830704 -0.10169699788093567 0.9952509999275208 -0.09667900204658508 -0.011349000036716461
          0.9536610245704651 -0.16896900534629822 -0.24895800650119781 0.9931020140647888 -0.10835400223731995 0.044808000326156616
          0.949970006942749 -0.216171994805336 -0.22544600069522858 0.9915720224380493 -0.041586000472307205 0.12270200252532959
          0.9739459753036499 -0.09153100103139877 -0.2074889987707138 0.9580280184745789 0.244159996509552 -0.15022799372673035
          0.9845430254936218 0.06920699775218964 0.16089099645614624 0.9843230247497559 -0.08941999822854996 0.15202899277210236
          0.9593080282211304 0.2799699902534485 -0.03668399900197983 0.9403979778289795 0.3135930001735687 0.1315709948539734
          0.9967420101165771 -0.03201200067996979 0.074024997651577 -0.23437699675559998 0.00584500003606081 0.9721279740333557
          -0.11622200161218643 -0.03675900027155876 0.9925429821014404 -0.23217299580574036 -0.028699999675154686 0.9722509980201721
          0.09272699803113937 -0.04937399923801422 0.99446702003479 0.08929400146007538 -0.008597999811172485 0.9959679841995239
          0.3215480148792267 0.09466700255870819 0.9421489834785461 -0.09301400184631348 0.08023200184106827 0.9924269914627075
          0.46061500906944275 0.13349899649620056 0.877502977848053 -0.11040499806404114 -0.04982199892401695 0.9926369786262512
          -0.002947000088170171 -0.08838299661874771 0.9960820078849792 -0.2541950047016144 -0.019386999309062958 0.9669589996337891
          0.8762810230255127 0.2334109991788864 0.4214859902858734 0.761775016784668 0.6274449825286865 0.1612830013036728
          0.5048630237579346 0.8487769961357117 0.15713299810886383 0.4995670020580292 0.8420310020446777 0.20351199805736542
          0.7611680030822754 0.6185659766197205 0.1949329972267151 0.49676498770713806 0.8664019703865051 0.05073000118136406
          0.7883099913597107 0.51835697889328 0.3314729928970337 0.9159929752349854 0.34611600637435913 0.20288099348545074
          0.8043659925460815 0.1980150043964386 0.5601649880409241 0.7331860065460205 0.2378160059452057 0.6370890140533447
          0.5783759951591492 0.2673879861831665 0.7707039713859558 0.3147070109844208 0.28426599502563477 0.9056220054626465
          0.6688830256462097 0.2893970012664795 0.6847230195999146 0.3960539996623993 0.07411199808120728 0.9152320027351379
          0.3739280104637146 0.21916499733924866 0.901190996170044 0.9628530144691467 0.19991299510002136 0.18151900172233582
          0.9407269954681396 0.22135700285434723 0.256972998380661 0.9908459782600403 0.12867699563503265 0.040817998349666595
          0.6585850119590759 0.315093994140625 0.6833599805831909 0.7432990074157715 0.24196000397205353 0.6236680150032043
          0.9089199900627136 0.2202260047197342 0.3540689945220947 0.9829999804496765 0.06239999830722809 -0.17267699539661407
          0.9356679916381836 -0.16915200650691986 -0.30970001220703125 0.8670600056648254 -0.2528359889984131 -0.42928001284599304
          0.9541260004043579 -0.16770899295806885 -0.2480279952287674 0.9166160225868225 0.06678999960422516 -0.3941499888896942
          0.9238240122795105 0.11081899702548981 -0.3664279878139496 0.8437129855155945 0.04720199853181839 -0.534716010093689
          0.7896400094032288 -0.009707000106573105 -0.6134939789772034 0.8192510008811951 -0.14191700518131256 -0.5555959939956665
          0.9869239926338196 0.09392099827528 -0.13099199533462524 -0.09644299745559692 0.07029400020837784 0.9928529858589172
          -0.27110999822616577 0.045747000724077225 0.9614610075950623 0.9672560095787048 -0.11385700106620789 -0.22683200240135193
          0.9852610230445862 -0.11440200358629227 -0.12717700004577637 0.9726309776306152 -0.0742340013384819 -0.2201790064573288
          0.950659990310669 -0.10809200257062912 -0.2907939851284027 0.9396389722824097 -0.21362900733947754 -0.2672860026359558
          0.8536180257797241 -0.181317999958992 -0.48832398653030396 0.9539099931716919 0.10228800028562546 -0.2821219861507416
          0.9973059892654419 -0.005477000027894974 -0.07314399629831314 0.9502769708633423 0.22203099727630615 -0.2183469980955124
          0.9375920295715332 0.27715998888015747 -0.21001100540161133 0.9105929732322693 0.2599709928035736 -0.32130199670791626
          0.9730989933013916 -0.023791000247001648 -0.2291560024023056 0.9810609817504883 -0.09615600109100342 -0.16814599931240082
          0.6471970081329346 -0.2757610082626343 -0.7106980085372925 0.751321017742157 -0.23726800084114075 -0.6158080101013184
          0.8421409726142883 -0.22802400588989258 -0.48867401480674744 0.8294559717178345 0.5515000224113464 -0.08860000222921371
          0.7986289858818054 0.5790870189666748 -0.16386200487613678 0.834069013595581 0.5214859843254089 0.17994900047779083
          0.8982509970664978 0.43860000371932983 0.027842000126838684 0.7867100238800049 0.6087890267372131 0.10228999704122543
          -0.5331460237503052 0.003719999920576811 0.8460149765014648 -0.4553700089454651 -0.019248999655246735 0.890093982219696
          -0.4359759986400604 -0.0807960033416748 0.8963239789009094 -0.3313409984111786 -0.05683000013232231 0.9417979717254639
          -0.21114599704742432 -0.009955000132322311 0.977403998374939 0.0825830027461052 0.10583700239658356 0.9909480214118958
          0.16943499445915222 0.2401690036058426 0.9558299779891968 0.23650799691677094 0.2619439959526062 0.9356539845466614
          -0.39527401328086853 0.1273760050535202 0.9096890091896057 -0.3122299909591675 0.2824229896068573 0.9070559740066528
          -0.08401799947023392 0.2591390013694763 0.9621790051460266 -0.21919700503349304 -0.09653700143098831 0.9708930253982544
          -0.3852429986000061 -0.10823100060224533 0.9164459705352783 -0.4837070107460022 -0.041547998785972595 0.8742430210113525
          -0.545760989189148 -0.05716399848461151 0.8359889984130859 0.7485049962997437 0.4428130090236664 0.4936160147190094
          0.4402500092983246 0.8703330159187317 0.2206840068101883 0.36434799432754517 0.9049370288848877 0.2198610007762909
          0.12170200049877167 0.9774410128593445 0.17262199521064758 0.5699639916419983 0.8084059953689575 0.147038996219635
          -0.12846599519252777 0.9285979866981506 0.34814101457595825 0.49705201387405396 0.8537669777870178 0.15499000251293182
          0.3872320055961609 0.8604580163955688 0.331155002117157 0.6571329832077026 0.753512978553772 0.01983500085771084
          0.17984600365161896 0.9754899740219116 0.12678900361061096 0.5475450158119202 0.7779070138931274 0.30831000208854675
          0.6549509763717651 0.6431080102920532 0.3968009948730469 0.6181430220603943 0.5433409810066223 0.5680490136146545
          0.5915120244026184 0.42518100142478943 0.6850799918174744 0.44609299302101135 0.4662100076675415 0.7639700174331665
          -0.008987000212073326 0.3634530007839203 0.93156898021698 -0.039877999573946 0.5501739978790283 0.8340979814529419
          0.09591200202703476 0.5315709710121155 0.8415660262107849 0.35499799251556396 0.2621630132198334 0.8973550200462341
          -0.1515129953622818 0.10516200214624405 0.9828450083732605 -0.06023599952459335 0.061705999076366425 0.996275007724762
          -0.018218999728560448 0.20087899267673492 0.9794470071792603 0.9929410219192505 0.10490000247955322 -0.055351000279188156
          0.985954999923706 0.16654400527477264 -0.01247899979352951 0.9080870151519775 0.2806229889392853 0.3108519911766052
          0.9255660176277161 0.29109498858451843 0.24205799400806427 0.970757007598877 0.20367899537086487 0.12706699967384338
          0.9906489849090576 0.10598500072956085 -0.08591599762439728 0.5968000292778015 0.2737779915332794 0.754239022731781
          0.8593559861183167 0.32325899600982666 0.396246999502182 0.9622880220413208 0.09617800265550613 -0.25446099042892456
          0.610418975353241 -0.337350994348526 -0.7166470289230347 0.48156899213790894 -0.27537599205970764 -0.8320209980010986
          0.7568989992141724 0.13004200160503387 -0.6404629945755005 0.8318600058555603 0.1947769969701767 -0.5196840167045593
          0.9504910111427307 0.13325199484825134 -0.28073298931121826 0.6428419947624207 -0.04447599872946739 -0.764706015586853
          0.5541179776191711 -0.001019999966956675 -0.8324369788169861 0.5384610295295715 -0.10670299828052521 -0.8358669877052307
          0.3529289960861206 -0.2426760047674179 -0.9036309719085693 0.9645559787750244 0.18727099895477295 -0.1859070062637329
          -0.33299899101257324 0.05524199828505516 0.9413080215454102 0.8210800290107727 -0.1754560023546219 -0.5431780219078064
          0.8387089967727661 -0.17095300555229187 -0.5170519948005676 0.8292120099067688 -0.19191999733448029 -0.5249519944190979
          0.6980680227279663 -0.19673800468444824 -0.6884729862213135 0.6367239952087402 -0.2158450037240982 -0.7402650117874146
          0.9458460211753845 -0.043758001178503036 -0.32165199518203735 0.8870180249214172 -0.16159799695014954 -0.43253299593925476
          0.8640559911727905 -0.19454899430274963 -0.46428200602531433 0.7319750189781189 -0.17430099844932556 -0.6586589813232422
          0.7832000255584717 -0.13770200312137604 -0.6063299775123596 0.9527450203895569 0.23047000169754028 -0.1978899985551834
          0.7936570048332214 0.5242459774017334 -0.30866700410842896 0.8161739706993103 0.47846099734306335 -0.32393699884414673
          0.8883470296859741 0.20449499785900116 -0.4111210107803345 0.3289850056171417 -0.3468010127544403 -0.8783490061759949
          0.14303000271320343 -0.312516987323761 -0.9390820264816284 0.33197200298309326 -0.2633259892463684 -0.9057890176773071
          0.3816550076007843 -0.2890560030937195 -0.8779439926147461 0.5650579929351807 -0.285057008266449 -0.7742429971694946
          0.590192973613739 0.7742689847946167 -0.22842900454998016 -0.6898549795150757 -0.02048099972307682 0.72365802526474
          -0.5199040174484253 0.04028699919581413 0.8532739877700806 -0.7272310256958008 -0.048868000507354736 0.6846510171890259
          -0.7881600260734558 -0.053077999502420425 0.6131770014762878 -0.7215750217437744 -0.007046000100672245 0.6923009753227234
          -0.7373679876327515 -0.0026839999482035637 0.6754860281944275 -0.7240250110626221 -0.0016469999682158232 0.6897709965705872
          -0.5813270211219788 -0.08693099766969681 0.8090130090713501 -0.3201630115509033 -0.04094599932432175 0.9464769959449768
          -0.5399619936943054 0.025286000221967697 0.8413090109825134 -0.49342799186706543 0.24076099693775177 0.8358010053634644
          -0.31795600056648254 0.3778809905052185 0.8695459961891174 -0.38464799523353577 -0.0792120024561882 0.9196580052375793
          -0.6366739869117737 -0.061441000550985336 0.7686820030212402 0.20576700568199158 -0.0872109979391098 0.9747070074081421
          -0.76460200548172 -0.1035190001130104 0.6361349821090698 -0.7260349988937378 -0.030748000368475914 0.6869710087776184
          -0.7279229760169983 -0.052712999284267426 0.6836299896240234 -0.7727630138397217 -0.06935600191354752 0.6308940052986145
          -0.06698299944400787 0.9870370030403137 0.14584699273109436 0.20176999270915985 0.9361969828605652 0.28779199719429016
          -0.4138740003108978 0.9007850289344788 0.13151299953460693 -0.20306800305843353 0.9738489985466003 0.1018889993429184
          0.5229309797286987 0.8478749990463257 -0.0874750018119812 -0.534138023853302 0.8377270102500916 0.11362200230360031
          -0.4706909954547882 0.7878950238227844 0.3970789909362793 -0.4762150049209595 0.7975640296936035 0.3702850043773651
          -0.49701499938964844 0.8536850214004517 0.15555299818515778 0.19288399815559387 0.9466800093650818 0.25805699825286865
          -0.24428300559520721 0.9195569753646851 0.30779901146888733 0.2616260051727295 0.9650480151176453 -0.015314999967813492
          0.3697420060634613 0.8431450128555298 0.39038199186325073 0.3521510064601898 0.7417320013046265 0.570809006690979
          0.2925280034542084 0.591605007648468 0.751285970211029 -0.21393699944019318 0.5685719847679138 0.794327974319458
          -0.18144400417804718 0.7347620129585266 0.6536070108413696 0.016325000673532486 0.7427899837493896 0.6693249940872192
          0.05568400025367737 0.21619799733161926 0.9747599959373474 -0.46060100197792053 0.05950000137090683 0.8856109976768494
          -0.398063987493515 0.0904730036854744 0.9128860235214233 0.9813050031661987 0.18838399648666382 -0.039406999945640564
          0.967972993850708 0.2428780049085617 0.06355699896812439 0.9649310111999512 0.2538610100746155 -0.06680099666118622
          0.9113019704818726 0.36495500802993774 0.1906210035085678 0.5659279823303223 0.35961800813674927 0.7418889999389648
          -0.05956299975514412 0.23845399916172028 0.9693250060081482 0.8270189762115479 0.3832640051841736 0.41127699613571167
          0.05228300020098686 -0.3198229968547821 -0.9460330009460449 0.24856199324131012 -0.3800260126590729 -0.890953004360199
          0.08167900145053864 -0.27015501260757446 -0.9593459963798523 0.10253199934959412 -0.28839701414108276 -0.9520050287246704
          0.3428199887275696 0.06483100354671478 -0.9371610283851624 0.8837379813194275 0.26250600814819336 -0.3874239921569824
          0.4712670147418976 0.16801999509334564 -0.8658390045166016 0.37672701478004456 -0.10816100239753723 -0.9199879765510559
          0.12916100025177002 -0.05122699961066246 -0.9902999997138977 0.11897700279951096 -0.12841199338436127 -0.9845579862594604
          0.19460999965667725 -0.18304899334907532 -0.9636489748954773 -0.1511480063199997 -0.23432700335979462 -0.9603360295295715
          0.9310439825057983 0.3346270024776459 -0.14553800225257874 0.9243389964103699 0.31458601355552673 -0.21594500541687012
          0.47234100103378296 -0.22664999961853027 -0.8517770171165466 0.4410879909992218 -0.2479570060968399 -0.862529993057251
          0.5140299797058105 -0.23849399387836456 -0.8239499926567078 0.3924109935760498 -0.2689110040664673 -0.8796030282974243
          0.2666949927806854 -0.15870699286460876 -0.9506239891052246 0.40367400646209717 -0.21126799285411835 -0.890175998210907
          0.2716180086135864 -0.2589620053768158 -0.9269099831581116 0.5806360244750977 -0.14406900107860565 -0.8013150095939636
          0.8383060097694397 -0.009554999880492687 -0.5451149940490723 0.663595974445343 0.00790799967944622 -0.7480499744415283
          0.8889369964599609 0.33465200662612915 -0.31272798776626587 0.7912949919700623 0.5316979885101318 -0.30191001296043396
          0.6607779860496521 0.6577770113945007 -0.3615260124206543 0.558830976486206 0.7216020226478577 -0.40865498781204224
          0.6445800065994263 0.6385669708251953 -0.420415997505188 0.7788199782371521 0.26337099075317383 -0.569275975227356
          0.7368180155754089 0.1591459959745407 -0.6570929884910583 0.7576860189437866 0.5492249727249146 -0.352512001991272
          0.7781919836997986 0.3965759873390198 -0.48697400093078613 -0.028012000024318695 -0.3254539966583252 -0.9451429843902588
          -0.25005701184272766 -0.2870050072669983 -0.9247159957885742 0.16797299683094025 -0.28099700808525085 -0.944894015789032
          -0.15672600269317627 -0.31571799516677856 -0.9358199834823608 0.41997599601745605 0.8472729921340942 -0.3251889944076538
          0.47250398993492126 0.8024500012397766 -0.3644370138645172 -0.6778020262718201 -0.03502799943089485 0.734408974647522
          -0.8525500297546387 -0.04691300168633461 0.5205349922180176 -0.8463220000267029 -0.027486000210046768 0.531961977481842
          -0.7329699993133545 -0.026041999459266663 0.6797620058059692 -0.9393720030784607 -0.04094700142741203 0.34044599533081055
          -0.8681759834289551 -0.05046100169420242 0.4936850070953369 -0.8911979794502258 -0.06719399988651276 0.44861000776290894
          -0.8824589848518372 -0.025242000818252563 0.4697119891643524 -0.17469899356365204 -0.0989769995212555 0.9796339869499207
          -0.4690830111503601 -0.05367700010538101 0.881521999835968 -0.4253149926662445 -0.0032140000257641077 0.9050400257110596
          -0.6330080032348633 -0.006457999814301729 0.7741190195083618 -0.5446649789810181 -0.05923600122332573 0.836558997631073
          -0.6519799828529358 0.044415999203920364 0.7569350004196167 -0.4063279926776886 0.29919499158859253 0.8633540272712708
          -0.5194330215454102 0.29357999563217163 0.8024960160255432 -0.24652299284934998 0.572018027305603 0.7823190093040466
          -0.2253510057926178 0.5891619920730591 0.775954008102417 0.7558799982070923 -0.05241699889302254 0.6526089906692505
          0.7463679909706116 0.007818999700248241 0.6654880046844482 -0.8150420188903809 -0.09075000137090683 0.57225102186203
          -0.7468140125274658 -0.12561100721359253 0.6530619859695435 -0.7323340177536011 -0.10231199860572815 0.6732159852981567
          -0.8200129866600037 -0.1336130052804947 0.5565310120582581 -0.8073710203170776 -0.09211800247430801 0.5828089714050293
          -0.8054569959640503 -0.13817599415779114 0.576321005821228 -0.7366549968719482 -0.12065599858760834 0.6654180288314819
          -0.8055559992790222 -0.07309500128030777 0.5879930257797241 -0.07492399960756302 0.9430469870567322 0.32411301136016846
          -0.4563319981098175 0.8897979855537415 -0.00455900002270937 -0.2246820032596588 0.9581990242004395 0.17712099850177765
          0.18162499368190765 0.9335950016975403 -0.3088909983634949 -0.46816200017929077 0.8361120223999023 0.2859030067920685
          -0.5881540179252625 0.8013070225715637 0.10945799946784973 -0.2864449918270111 0.9322199821472168 0.22116799652576447
          -0.3631789982318878 0.9282259941101074 0.08060900121927261 -0.4608229994773865 0.8831200003623962 -0.08798100054264069