<?xml version="1.0"?>
<VTKFile type="PolyData" version="0.1" byte_order="LittleEndian" header_type="UInt32" compressor="vtkZLibDataCompressor">
  <PolyData>
    <Piece NumberOfPoints="4230" NumberOfVerts="0" NumberOfLines="0" NumberOfStrips="0" NumberOfPolys="8456">
      <PointData Normals="Normals">
        <DataArray type="Float32" Name="Normals" NumberOfComponents="3" format="ascii" RangeMin="0.9999992592039951" RangeMax="1.0000007576160197">
          -0.17774100601673126 -0.9687290191650391 0.1731259971857071 -0.30650201439857483 -0.8747299909591675 0.3753730058670044
          -0.35511600971221924 -0.9068729877471924 0.2268809974193573 -0.37561699748039246 -0.9208130240440369 0.1049479991197586
          -0.1512710005044937 -0.8824840188026428 0.4453530013561249 0.03239599987864494 -0.9942200183868408 0.1023550033569336
          -0.03581500053405762 -0.9646459817886353 0.2611050009727478 -0.21012799441814423 -0.9752669930458069 0.06855999678373337
          -0.049247998744249344 -0.9966790080070496 -0.06484899669885635 0.03748900070786476 -0.9992899894714355 -0.0037479999009519815
          -0.4207499921321869 -0.846684992313385 0.32572099566459656 -0.26729100942611694 -0.7164279818534851 0.6444270014762878
          -0.3313150107860565 -0.7842040061950684 0.5246469974517822 -0.4045479893684387 -0.810791015625 0.42303499579429626
          -0.5402330160140991 -0.8100939989089966 0.22780899703502655 -0.5025169849395752 -0.8607490062713623 -0.08116000145673752
          -0.22268299758434296 -0.964726984500885 -0.140406996011734 0.024109000340104103 -0.908905029296875 0.4163059890270233
          -0.01194700039923191 -0.813215970993042 0.5818399786949158 0.12902000546455383 -0.9574769735336304 0.2580539882183075
          0.16812199354171753 -0.9763929843902588 0.13561899960041046 0.23077799379825592 -0.9719520211219788 -0.04527600109577179
          -0.012334000319242477 -0.9778860211372375 -0.20877599716186523 0.19624200463294983 -0.9563590288162231 -0.21648600697517395
          -0.5127999782562256 -0.7543190121650696 0.40992701053619385 -0.3015829920768738 -0.500328004360199 0.8116160035133362
          -0.3351309895515442 -0.6149200201034546 0.7138350009918213 -0.3356289863586426 -0.6170139908790588 0.7117909789085388
          -0.09692899882793427 -0.6483539938926697 0.7551440000534058 -0.45879900455474854 -0.6688269972801208 0.5849570035934448
          -0.5664849877357483 -0.8238170146942139 -0.020515000447630882 -0.5487239956855774 -0.7091130018234253 0.4427869915962219
          -0.5601990222930908 -0.7907919883728027 0.24662700295448303 -0.642952024936676 -0.7647209763526917 0.04259800165891647
          -0.6680939793586731 -0.719419002532959 0.1899619996547699 -0.5978900194168091 -0.7857699990272522 0.15840700268745422
          -0.5082259774208069 -0.8421469926834106 -0.1802629977464676 -0.366661012172699 -0.8915860056877136 -0.2657710015773773
          -0.4477880001068115 -0.845890998840332 -0.2897469997406006 -0.12155299633741379 -0.9324659705162048 -0.3401939868927002
          -0.04872800037264824 -0.9836900234222412 -0.17314699292182922 0.14072899520397186 -0.8917570114135742 0.4300749897956848
          0.09425099939107895 -0.7204989790916443 0.687021017074585 0.1757420003414154 -0.8260300159454346 0.5355269908905029
          0.29481300711631775 -0.9094640016555786 0.29319098591804504 0.3194180130958557 -0.9402859807014465 0.11761999875307083
          0.3912700116634369 -0.9154980182647705 -0.0936489999294281 0.06337600201368332 -0.9466220140457153 -0.31605398654937744
          0.333063006401062 -0.9017620086669922 -0.2754899859428406 0.21698999404907227 -0.8886529803276062 -0.40399399399757385
          -0.6036620140075684 -0.6282699704170227 0.4907839894294739 -0.39013200998306274 -0.5696640014648438 0.723380982875824
          -0.2815679907798767 -0.348688006401062 0.8939440250396729 -0.2462259978055954 -0.2259330004453659 0.9425110220909119
          -0.23228900134563446 -0.33414599299430847 0.9134489893913269 -0.37539300322532654 -0.5550439953804016 0.7422980070114136
          0.002911000046879053 -0.5517730116844177 0.8339899778366089 -0.4934130012989044 -0.5168430209159851 0.6995829939842224
          -0.5995230078697205 -0.552586019039154 0.5789819955825806 -0.5387089848518372 -0.832705020904541 -0.12804099917411804
          -0.6234850287437439 -0.701321005821228 0.34556499123573303 -0.6755110025405884 -0.5675849914550781 0.47067201137542725
          -0.7081090211868286 -0.6958510279655457 0.11988899856805801 -0.6447139978408813 -0.759850025177002 -0.08350399881601334
          -0.7590330243110657 -0.6508499979972839 -0.016201000660657883 -0.7863500118255615 -0.615975022315979 0.04721200093626976
          -0.7390699982643127 -0.559781014919281 0.3747290074825287 -0.7896810173988342 -0.5716500282287598 0.22275499999523163
          -0.2399349957704544 -0.8718299865722656 -0.4270179867744446 -0.2330629974603653 -0.8103650212287903 -0.5375779867172241
          -0.5460690259933472 -0.8035650253295898 -0.23683799803256989 -0.4153119921684265 -0.7774710059165955 -0.4722859859466553
          0.0026549999602138996 -0.8378289937973022 -0.5459269881248474 0.36525198817253113 -0.8280180096626282 0.42541301250457764
          0.25539499521255493 -0.7744160294532776 0.5788379907608032 0.27014899253845215 -0.7271140217781067 0.6311290264129639
          0.050930000841617584 -0.5867080092430115 0.8081949949264526 0.10523200035095215 -0.5779179930686951 0.8092820048332214
          0.5014399886131287 -0.8472260236740112 0.1754000037908554 0.4753020107746124 -0.8732060194015503 -0.10770200192928314
          0.3228909969329834 -0.8580399751663208 -0.399385005235672 0.4093039929866791 -0.8451399803161621 -0.3438139855861664
          0.2521809935569763 -0.8161879777908325 -0.5198479890823364 -0.680728018283844 -0.49091899394989014 0.5436980128288269
          -0.46487000584602356 -0.4093709886074066 0.7850549817085266 -0.38718000054359436 -0.40619900822639465 0.8277040123939514
          -0.1587969958782196 -0.3852899968624115 0.909030020236969 -0.10671500116586685 -0.280333012342453 0.9539530277252197
          -0.17004500329494476 -0.12557700276374817 0.9774019718170166 -0.15460699796676636 -0.3926840126514435 0.9065849781036377
          -0.37600401043891907 -0.16212600469589233 0.9123250246047974 -0.2661310136318207 -0.3505040109157562 0.897953987121582
          -0.00834100041538477 -0.3313460052013397 0.9434720277786255 0.1664000004529953 -0.329475998878479 0.9293850064277649
          -0.571711003780365 -0.4407140016555786 0.6920390129089355 -0.7792770266532898 -0.41406500339508057 0.4704020023345947
          -0.8138099908828735 -0.47626999020576477 0.3329859972000122 -0.7582160234451294 -0.6492159962654114 -0.06021900102496147
          -0.6491950154304504 -0.726656973361969 -0.22475500404834747 -0.8482229709625244 -0.5268430113792419 0.054354000836610794
          -0.8425930142402649 -0.51317298412323 0.16337500512599945 -0.17150400578975677 -0.688742995262146 -0.7044289708137512
          -0.06380800157785416 -0.7539870142936707 -0.6537830233573914 -0.27432700991630554 -0.7104380130767822 -0.6480919718742371
          -0.2894760072231293 -0.7028390169143677 -0.6497859954833984 -0.2372409999370575 -0.7171930074691772 -0.6552489995956421
          -0.4415459930896759 -0.6627539992332458 -0.6048089861869812 -0.48214200139045715 -0.6160460114479065 -0.6229180097579956
          -0.5716890096664429 -0.6652569770812988 -0.48021200299263 0.04195300117135048 -0.7836120128631592 -0.6198329925537109
          0.4284519851207733 -0.7510809898376465 0.5023009777069092 0.5400559902191162 -0.7572939991950989 0.3672119975090027
          0.2516390085220337 -0.574084997177124 0.7791690230369568 0.4692470133304596 -0.6737200021743774 0.5708839893341064
          0.011760000139474869 -0.44381898641586304 0.8960390090942383 0.11035200208425522 -0.3690490126609802 0.9228349924087524
          0.582705020904541 -0.7980790138244629 0.1533759981393814 0.5302839875221252 -0.8356500267982483 -0.1431339979171753
          0.5684720277786255 -0.7340279817581177 -0.37154000997543335 0.473565012216568 -0.7593690156936646 -0.44620099663734436
          0.4997200071811676 -0.7457209825515747 -0.4406589865684509 0.4598200023174286 -0.7066439986228943 -0.5377910137176514
          0.10243400186300278 -0.7592880129814148 -0.6426420211791992 0.22053499519824982 -0.7114710211753845 -0.6672130227088928
          -0.5842239856719971 -0.3397189974784851 0.7370709776878357 -0.529915988445282 -0.36313900351524353 0.7663670182228088
          -0.5249069929122925 -0.3843179941177368 0.7594550251960754 -0.33507001399993896 -0.44498899579048157 0.830489993095398
          -0.005477000027894974 -0.5571990013122559 0.830361008644104 0.1761849969625473 -0.42902499437332153 0.8859429955482483
          -0.07833000272512436 -0.5308870077133179 0.84381502866745 -0.4289329946041107 -0.4207189977169037 0.7993829846382141
          -0.5221149921417236 -0.48475098609924316 0.7017210125923157 -0.44326600432395935 -0.5319939851760864 0.7214549779891968
          -0.16125799715518951 -0.48739901185035706 0.8581590056419373 0.018675999715924263 -0.4402660131454468 0.8976730108261108
          -0.8426480293273926 -0.4121969938278198 0.3464660048484802 -0.8481870293617249 -0.32915499806404114 0.415012001991272
          -0.6839420199394226 -0.2564600110054016 0.6829730272293091 -0.8269320130348206 -0.24926799535751343 0.5040320158004761
          -0.8612800240516663 -0.48281601071357727 0.1583860069513321 -0.869422972202301 -0.4478529989719391 0.20864400267601013
          -0.7799540162086487 -0.6235529780387878 -0.05341700091958046 -0.7727090120315552 -0.6210359930992126 -0.1312820017337799
          -0.6973360180854797 -0.6552919745445251 -0.29037100076675415 -0.8747879862785339 -0.4663259983062744 0.13147200644016266
          -0.8632479906082153 -0.49226298928260803 0.11171100288629532 -0.8692939877510071 -0.4941929876804352 -0.010071000084280968
          -0.10478799790143967 -0.5924190282821655 -0.7987859845161438 -0.19625599682331085 -0.5414680242538452 -0.8174939751625061
          -0.30626100301742554 -0.4907959997653961 -0.8156740069389343 -0.24238699674606323 -0.5687749981880188 -0.7859669923782349
          -0.032239001244306564 -0.7117589712142944 -0.7016839981079102 -0.26783499121665955 -0.5509269833564758 -0.7904070019721985
          -0.37225499749183655 -0.5360450148582458 -0.7576820254325867 -0.44406598806381226 -0.54237300157547 -0.7131869792938232
          -0.33173298835754395 -0.40433400869369507 -0.8523309826850891 -0.4363290071487427 -0.49445798993110657 -0.7517499923706055
          -0.5924310088157654 -0.6446369886398315 -0.4831860065460205 0.5276269912719727 -0.6834920048713684 0.5044289827346802
          0.66696697473526 -0.6956070065498352 0.26699599623680115 0.6129800081253052 -0.7356969714164734 0.2881070077419281
          0.6561790108680725 -0.6555920243263245 0.3736700117588043 0.22673599421977997 -0.5344939827919006 0.8141909837722778
          -0.050710998475551605 -0.47981899976730347 0.8759009838104248 0.5221149921417236 -0.636256992816925 0.5679550170898438
          0.40519899129867554 -0.5701310038566589 0.7146779894828796 -0.06079399958252907 -0.4927540123462677 0.8680419921875
          0.6465889811515808 -0.7558649778366089 -0.10290499776601791 0.6857870221138 -0.7000669836997986 0.19900600612163544
          0.5469390153884888 -0.7219480276107788 -0.42384999990463257 0.5422710180282593 -0.762660026550293 -0.35255101323127747
          0.4721260070800781 -0.8114740252494812 -0.3443939983844757 0.665198028087616 -0.6222109794616699 -0.41275298595428467
          0.663021981716156 -0.5660880208015442 -0.4898430109024048 0.36250901222229004 -0.6534050107002258 -0.6645669937133789
          0.535614013671875 -0.6062849760055542 -0.5878229737281799 0.013555999845266342 -0.6735360026359558 -0.7390300035476685
          0.16628600656986237 -0.5599300265312195 -0.8116819858551025 0.06764700263738632 -0.619038999080658 -0.7824410200119019
          -0.5805420279502869 -0.17614300549030304 0.7949489951133728 -0.5237020254135132 -0.33602699637413025 0.782829999923706
          -0.4976629912853241 -0.37555500864982605 0.7818499803543091 -0.11541000008583069 -0.5799030065536499 0.8064699769020081
          -0.4185760021209717 -0.37691599130630493 0.8262739777565002 0.20015199482440948 -0.7180200219154358 0.6666229963302612
          -0.08344700187444687 -0.7412369847297668 0.6660360097885132 0.32547301054000854 -0.6755489706993103 0.6615899801254272
          -0.5107330083847046 -0.6153910160064697 0.6003710031509399 -0.47171199321746826 -0.6312819719314575 0.6156070232391357
          -0.27488601207733154 -0.5128329992294312 0.813289999961853 -0.08776800334453583 -0.5278199911117554 0.8448089957237244
          0.12438099831342697 -0.5071510076522827 0.8528349995613098 -0.886879026889801 -0.3142800033092499 0.33863601088523865
          -0.8598740100860596 -0.21059100329875946 0.4650459885597229 -0.750311017036438 -0.20331700146198273 0.6290429830551147
          -0.6120989918708801 -0.17476600408554077 0.7712270021438599 -0.7333980202674866 -0.13375599682331085 0.6665099859237671
          -0.8291530013084412 -0.11772000044584274 0.5464860200881958 -0.8433200120925903 -0.1223829984664917 0.5232909917831421
          -0.9024689793586731 -0.37890300154685974 0.2048960030078888 -0.8349679708480835 -0.5078690052032471 -0.21189099550247192
          -0.7667610049247742 -0.5838119983673096 -0.26690998673439026 -0.659309983253479 -0.6169149875640869 -0.4297980070114136
          -0.8811820149421692 -0.45944398641586304 0.11148600280284882 -0.9132130146026611 -0.3971169888973236 -0.09132800251245499
          -0.9275550246238708 -0.36194801330566406 0.09292399883270264 -0.1255819946527481 -0.5386300086975098 -0.8331310153007507
          -0.19070200622081757 -0.3876970112323761 -0.9018449783325195 -0.3597790002822876 -0.3252820074558258 -0.8744999766349792
          -0.2510089874267578 -0.3457309901714325 -0.9041370153427124 -0.38865000009536743 -0.29060399532318115 -0.8743569850921631
          -0.487976998090744 -0.26784199476242065 -0.8307459950447083 -0.22878600656986237 -0.3108440041542053 -0.9225149750709534
          -0.3090600073337555 -0.36110299825668335 -0.8798220157623291 -0.3381809890270233 -0.3610660135746002 -0.8690599799156189
          -0.18849100172519684 -0.2219489961862564 -0.9566659927368164 -0.2300959974527359 -0.1404460072517395 -0.9629799723625183
          -0.31655099987983704 -0.3702229857444763 -0.8733440041542053 -0.5328750014305115 -0.5387750267982483 -0.6525070071220398
          0.7867479920387268 -0.559598982334137 0.2605319917201996 0.6924989819526672 -0.5531550049781799 0.4631020128726959
          0.7518389821052551 -0.5411520004272461 0.3766860067844391 0.02329999953508377 -0.5094860196113586 0.8601629734039307
          0.24122300744056702 -0.4897890090942383 0.837805986404419 0.41355100274086 -0.5234779715538025 0.7449470162391663
          -0.18953700363636017 -0.5282760262489319 0.8276469707489014 0.5572739839553833 -0.564287006855011 0.6091189980506897
          0.014911999925971031 -0.5786970257759094 0.8154060244560242 0.7886620163917542 -0.6059830188751221 0.10390900075435638
          0.7376239895820618 -0.6647220253944397 -0.11855900287628174 0.6148030161857605 -0.7244629859924316 -0.311722993850708
          0.7996540069580078 -0.4775710105895996 -0.36397799849510193 0.7367990016937256 -0.6259580254554749 -0.2555460035800934
          0.7588670253753662 -0.4494529962539673 -0.4712890088558197 0.6053109765052795 -0.4964829981327057 -0.6221759915351868
          0.7109799981117249 -0.4049690067768097 -0.5748980045318604 0.3097040057182312 -0.5827760100364685 -0.7513020038604736
          0.429080992937088 -0.4687579870223999 -0.7721109986305237 -0.06018799915909767 -0.5049340128898621 -0.8610569834709167
          0.03228199854493141 -0.41000500321388245 -0.911512017250061 0.23593799769878387 -0.4533050060272217 -0.8595629930496216
          -0.5021719932556152 -0.25991299748420715 0.824783980846405 -0.5628020167350769 -0.135686993598938 0.8153790235519409
          -0.5618209838867188 -0.008826999925076962 0.8272119760513306 -0.7142469882965088 -0.04954399913549423 0.6981379985809326
          -0.4480910003185272 -0.3031049966812134 0.8410360217094421 -0.3133400082588196 -0.45598700642585754 0.8330029845237732
          0.1543699949979782 -0.6316959857940674 0.75968998670578 -0.2267169952392578 -0.7541679739952087 0.616303026676178
          -0.044780999422073364 -0.7296149730682373 0.6823899745941162 -0.13208800554275513 -0.5988900065422058 0.7898629903793335
          -0.18165799975395203 -0.37021100521087646 0.9110130071640015 -0.16282300651073456 -0.3034769892692566 0.9388239979743958
          -0.07833900302648544 -0.44589099287986755 0.8916530013084412 -0.91566002368927 -0.2819269895553589 0.28650200366973877
          -0.9149690270423889 -0.3105520009994507 0.25766101479530334 -0.9039270281791687 -0.0813480019569397 0.4198800027370453
          -0.9008510112762451 -0.18245799839496613 0.3939250111579895 -0.9415779709815979 -0.2007479965686798 0.2704260051250458
          -0.7930799722671509 -0.11403399705886841 0.5983480215072632 -0.7192180156707764 -0.12945300340652466 0.6826180219650269
          -0.7930840253829956 -0.08898799866437912 0.6025769710540771 -0.7303249835968018 -0.0835999995470047 0.677964985370636
          -0.7106540203094482 0.019139999523758888 0.7032809853553772 -0.8367630243301392 -0.08205900341272354 0.5413820147514343
          -0.9153310060501099 -0.1179800033569336 0.3850330114364624 -0.9295840263366699 -0.30763599276542664 0.2030629962682724
          -0.7631999850273132 -0.5394269824028015 -0.35572999715805054 -0.8309059739112854 -0.4365519881248474 -0.34498900175094604
          -0.46241500973701477 -0.5590739846229553 -0.6881920099258423 -0.6159290075302124 -0.5851650238037109 -0.5274590253829956
          -0.9566220045089722 -0.26613500714302063 0.11852200329303741 -0.95933598279953 -0.28041699528694153 0.032274000346660614
          -0.9467390179634094 -0.31943199038505554 -0.040591999888420105 -0.8932899832725525 -0.3741280138492584 -0.2491219937801361
          -0.24873900413513184 -0.3331800103187561 -0.9094610214233398 -0.3156140148639679 -0.35400301218032837 -0.8803799748420715
          -0.3307250142097473 -0.16021400690078735 -0.9300280213356018 -0.47973600029945374 -0.09596800059080124 -0.8721489906311035
          -0.41749298572540283 -0.14976699650287628 -0.8962529897689819 -0.24049800634384155 -0.1455249935388565 -0.9596790075302124
          -0.12857800722122192 -0.04127899929881096 -0.9908400177955627 -0.0704130008816719 -0.25677698850631714 -0.9639019966125488
          -0.11376699805259705 -0.08499199897050858 -0.9898650050163269 -0.07613600045442581 -0.001120000029914081 -0.9970970153808594
          -0.2759590148925781 -0.4200249910354614 -0.8645380139350891 0.8943099975585938 -0.4035530090332031 0.19327299296855927
          0.8348000049591064 -0.42926400899887085 0.34473299980163574 0.8403499722480774 -0.4365620017051697 0.32128798961639404
          0.7026730179786682 -0.5032690167427063 0.5029619932174683 0.11678200215101242 -0.43796399235725403 0.8913750052452087
          -0.04224000126123428 -0.45285099744796753 0.8905850052833557 0.27240699529647827 -0.4461440145969391 0.8524960279464722
          0.5370270013809204 -0.5042030215263367 0.6762999892234802 0.416157990694046 -0.42361900210380554 0.8045859932899475
          0.5685960054397583 -0.5099350214004517 0.6454960107803345 0.8478800058364868 -0.53016197681427 0.00520800007507205
          0.841077983379364 -0.5122299790382385 -0.17380400002002716 0.8789139986038208 -0.3276529908180237 -0.3466309905052185
          0.8877459764480591 -0.37229299545288086 -0.2707490026950836 0.8264210224151611 -0.34235700964927673 -0.4470129907131195
          0.49168699979782104 -0.3589789867401123 -0.7933329939842224 0.8134909868240356 -0.30225199460983276 -0.49686598777770996
          0.7164049744606018 -0.286749005317688 -0.6360340118408203 0.10307300090789795 -0.3270780146121979 -0.9393600225448608
          0.24018999934196472 -0.3314020037651062 -0.9124040007591248 -0.149384006857872 -0.33308398723602295 -0.9309880137443542
          -0.5012649893760681 -0.11668200045824051 0.8573909997940063 -0.41109299659729004 -0.29628801345825195 0.8621000051498413
          -0.44236600399017334 -0.24419400095939636 0.862949013710022 -0.4791930019855499 0.027636000886559486 0.8772739768028259
          -0.4710640013217926 0.0224239993840456 0.8818140029907227 -0.5898240208625793 0.0636029988527298 0.8050230145454407
          -0.49894699454307556 0.04548399895429611 0.8654379844665527 -0.47359201312065125 -0.3157530128955841 0.8221989870071411
          -0.3469659984111786 -0.2988860011100769 0.8889780044555664 -0.19384799897670746 -0.48875999450683594 0.8506090044975281
          -0.4636630117893219 -0.2957090139389038 0.835207998752594 -0.321025013923645 -0.22041499614715576 0.9210649728775024
          -0.12558700144290924 -0.328359991312027 0.9361670017242432 -0.17084400355815887 -0.18654200434684753 0.9674779772758484
          -0.09178899973630905 -0.10483500361442566 0.99024498462677 -0.1428460031747818 -0.1768369972705841 0.9738190174102783
          -0.9364510178565979 -0.26309800148010254 0.23203299939632416 -0.9257889986038208 0.15174399316310883 0.34624800086021423
          -0.9413080215454102 -0.022383999079465866 0.33680400252342224 -0.9624969959259033 -0.023029999807476997 0.2703140079975128
          -0.9598940014839172 -0.050370000302791595 0.27580100297927856 -0.9512500166893005 -0.18544399738311768 0.2464420050382614
          -0.6350709795951843 0.0016299999551847577 0.7724519968032837 -0.7107470035552979 -0.07106799632310867 0.6998479962348938
          -0.8282099962234497 -0.15578000247478485 0.5383309721946716 -0.9460399746894836 -0.16208699345588684 0.2805980145931244
          -0.9283419847488403 -0.13621699810028076 0.3458690047264099 -0.9586750268936157 -0.139491006731987 0.24796199798583984
          -0.7111160159111023 -0.4419659972190857 -0.5467910170555115 -0.6563299894332886 -0.5200700163841248 -0.5465880036354065
          -0.672232985496521 -0.4222869873046875 -0.6080920100212097 -0.7260689735412598 -0.4086199998855591 -0.5530409812927246
          -0.4675059914588928 -0.49438801407814026 -0.7328159809112549 -0.9661110043525696 -0.07502400130033493 0.24698300659656525
          -0.9740779995918274 -0.20169299840927124 0.10243400186300278 -0.903232991695404 -0.3833639919757843 -0.19287900626659393
          -0.8976860046386719 -0.3891170024871826 -0.20675699412822723 -0.9714239835739136 -0.22671300172805786 0.07026900351047516
          -0.7827979922294617 -0.41768598556518555 -0.4612640142440796 -0.42410698533058167 -0.07955099642276764 -0.9021109938621521
          -0.5160620212554932 -0.08076799660921097 -0.8527349829673767 -0.4069249927997589 -0.199522003531456 -0.8914049863815308
          -0.42951399087905884 0.00571200018748641 -0.9030420184135437 0.9429759979248047 0.0072929998859763145 -0.33278098702430725
          0.7674369812011719 0.034012001007795334 -0.6402220129966736 -0.2472199946641922 -0.3652009963989258 -0.8975020051002502
          -0.1995059996843338 -0.3101100027561188 -0.929531991481781 -0.042093001306056976 -0.2880460023880005 -0.9566910266876221
          -0.0064500002190470695 -0.208979994058609 -0.9778990149497986 -0.20844100415706635 -0.05454700067639351 -0.9765130281448364
          0.5912590026855469 -0.016479000449180603 -0.8063139915466309 0.9094510078430176 -0.3434329926967621 0.23441900312900543
          0.8986740112304688 -0.43639901280403137 0.044068001210689545 0.9210749864578247 -0.3882159888744354 0.03016600012779236
          0.9565370082855225 -0.28136301040649414 0.07662399858236313 0.9111059904098511 -0.3534480035305023 0.21203799545764923
          0.7992389798164368 -0.4636229872703552 0.3824540078639984 0.9116439819335938 -0.368135005235672 0.18270699679851532
          0.6530240178108215 -0.44839200377464294 0.6103309988975525 0.21779100596904755 -0.37902501225471497 0.8993930220603943
          0.035698000341653824 -0.3036940097808838 0.9521009922027588 -0.06662099808454514 -0.32634401321411133 0.9429010152816772
          0.24591900408267975 -0.29957300424575806 0.9218350052833557 0.18517400324344635 -0.2971920073032379 0.9366899728775024
          0.6260690093040466 -0.46361300349235535 0.6269779801368713 0.4759959876537323 -0.5213189721107483 0.7082759737968445
          0.4803920090198517 -0.34598401188850403 0.8059269785881042 0.8727459907531738 -0.4844430088996887 -0.060249000787734985
          0.9143049716949463 -0.3773350119590759 -0.14719200134277344 0.9328719973564148 -0.2750470042228699 -0.23259100317955017
          0.8722599744796753 -0.22953000664710999 -0.4318310022354126 0.9150760173797607 -0.23986199498176575 -0.324194997549057
          0.25237900018692017 -0.2697010040283203 -0.929282009601593 0.4939799904823303 -0.26795700192451477 -0.8271539807319641
          0.8490869998931885 -0.2257000058889389 -0.4776090085506439 0.75935298204422 -0.23425300419330597 -0.6070489883422852
          0.593783974647522 -0.2507050037384033 -0.7645699977874756 -0.21356500685214996 -0.19448800384998322 -0.9573739767074585
          0.025453999638557434 -0.2624930143356323 -0.9645980000495911 -0.19226700067520142 -0.18433600664138794 -0.9638739824295044
          -0.4312269985675812 -0.1689240038394928 0.8862890005111694 -0.45539501309394836 -0.0815029963850975 0.886551022529602
          -0.426829993724823 -0.2151769995689392 0.8783590197563171 -0.43339601159095764 0.10069800168275833 0.8955600261688232
          -0.3902469873428345 0.021970000118017197 0.9204480051994324 -0.4286220073699951 0.07609300315380096 0.9002739787101746
          -0.5156009793281555 -0.06776899844408035 0.8541449904441833 -0.26277801394462585 -0.130731999874115 0.9559590220451355
          -0.14242899417877197 -0.23333700001239777 0.9619089961051941 -0.09539400041103363 -0.14880900084972382 0.984254002571106
          -0.03613400086760521 -0.06377500295639038 0.9973099827766418 -0.09359999746084213 -0.07842399924993515 0.9925159811973572
          -0.09793400019407272 0.11665000021457672 0.988332986831665 -0.14074000716209412 0.09925399720668793 0.9850590229034424
          -0.24168899655342102 0.08416900038719177 0.9666969776153564 -0.21897999942302704 -0.023989999666810036 0.9754340052604675
          -0.2548600137233734 0.0092569999396801 0.9669340252876282 -0.9072080254554749 0.14294299483299255 0.39565300941467285
          -0.9031800031661987 0.1775369942188263 0.3908289968967438 -0.9093520045280457 -0.012657999992370605 0.4158340096473694
          -0.6572740077972412 -0.14173099398612976 0.7402049899101257 -0.5920959711074829 -0.09929600358009338 0.7997260093688965
          -0.7220770120620728 -0.15388000011444092 0.674481987953186 -0.6921449899673462 -0.2028380036354065 0.692671000957489
          -0.8887850046157837 -0.17055100202560425 0.4254109859466553 -0.7818089723587036 -0.21417799592018127 0.5855780243873596
          -0.9339789748191833 -0.0655129998922348 0.35127198696136475 -0.9866319894790649 -0.019703000783920288 0.1617709994316101
          -0.9547380208969116 -0.0858670026063919 0.2847839891910553 -0.9802619814872742 -0.026334000751376152 0.19593900442123413
          -0.4142720103263855 -0.3454059958457947 -0.8420649766921997 -0.4710879921913147 -0.3893980085849762 -0.7914829850196838
          -0.432871013879776 -0.4029879868030548 -0.8063639998435974 -0.591277003288269 -0.3628770112991333 -0.7202159762382507
          -0.5436519980430603 -0.39268800616264343 -0.7417799830436707 -0.960644006729126 -0.0874439999461174 0.2636600136756897
          -0.8893920183181763 0.035523999482393265 0.4557630121707916 -0.8795530200004578 -0.36582300066947937 -0.3042370080947876
          -0.7686319947242737 -0.4567689895629883 -0.44784799218177795 -0.9744899868965149 -0.220101997256279 -0.043877001851797104
          -0.9826160073280334 -0.04250499978661537 0.18071900308132172 -0.6193649768829346 -0.37984898686408997 -0.6870970129966736
          -0.21120500564575195 0.02151400037109852 -0.9772049784660339 -0.44839200377464294 -0.02951899915933609 -0.8933500051498413
          -0.4469119906425476 -0.04373199865221977 -0.8935080170631409 -0.4641369879245758 0.008953000418841839 -0.8857179880142212
          -0.27005600929260254 -0.28891199827194214 -0.9184769988059998 0.11096899956464767 -0.2949559986591339 -0.9490450024604797
          -0.09466200321912766 -0.35459500551223755 -0.9302160143852234 0.17809399962425232 -0.2934739887714386 -0.9392309784889221
          -0.29622000455856323 -0.07740999758243561 -0.9519780278205872 -0.26439398527145386 -0.1626189947128296 -0.9506059885025024
          0.03870199993252754 -0.29373699426651 -0.9551029801368713 0.952908992767334 -0.28677898645401 -0.09860300272703171
          0.9671970009803772 -0.22696200013160706 0.11409900337457657 0.9862750172615051 -0.13669699430465698 0.09260900318622589
          0.9794189929962158 -0.14131799340248108 -0.1441120058298111 0.997281014919281 -0.07343500107526779 -0.006093999836593866
          0.5823370218276978 -0.5917199850082397 0.557449996471405 0.8943219780921936 -0.3972730040550232 0.20582300424575806
          0.8532779812812805 -0.43164101243019104 0.2925780117511749 0.7747610211372375 -0.43622899055480957 0.45765599608421326
          0.9714699983596802 -0.23354500532150269 0.04126400128006935 -0.015424000099301338 -0.12677699327468872 0.9918109774589539
          0.05346899852156639 -0.19489499926567078 0.9793660044670105 0.07339800149202347 -0.14143399894237518 0.9872230291366577
          0.26123499870300293 -0.24487699568271637 0.9336979985237122 0.6035820245742798 -0.526511013507843 0.5987269878387451