<?xml version="1.0"?>
<VTKFile type="PolyData" version="0.1" byte_order="LittleEndian" header_type="UInt32" compressor="vtkZLibDataCompressor">
  <PolyData>
    <Piece NumberOfPoints="1321" NumberOfVerts="0" NumberOfLines="0" NumberOfStrips="0" NumberOfPolys="2638">
      <PointData Normals="Normals">
        <DataArray type="Float32" Name="Normals" NumberOfComponents="3" format="ascii" RangeMin="0.9999992103456132" RangeMax="1.0000007666995776">
          0.13863900303840637 -0.9247450232505798 -0.3544360101222992 0.2663699984550476 -0.9340260028839111 -0.23799699544906616
          -0.16948500275611877 -0.9447000026702881 -0.2807430028915405 -0.051660001277923584 -0.9345769882202148 -0.3519909977912903
          0.4034929871559143 -0.8616949915885925 -0.3076939880847931 0.42126598954200745 -0.8540120124816895 -0.3052839934825897
          0.19822099804878235 -0.980135977268219 -0.006504999939352274 0.48638200759887695 -0.8701459765434265 -0.0792360007762909
          -0.6007670164108276 -0.7070549726486206 -0.37303099036216736 -0.5253440141677856 -0.7351459860801697 -0.4284540116786957
          -0.30633699893951416 -0.9386119842529297 -0.15863299369812012 -0.18274399638175964 -0.9717860221862793 -0.14912199974060059
          -0.5080699920654297 -0.7286790013313293 -0.4592289924621582 -0.34731799364089966 -0.770937979221344 -0.5338780283927917
          0.10138799995183945 -0.8990520238876343 -0.42594200372695923 0.5574629902839661 -0.8300049901008606 -0.018100999295711517
          0.6134160161018372 -0.7825899720191956 -0.106175996363163 0.297201007604599 -0.7978060245513916 -0.524573028087616
          0.5286909937858582 -0.7672250270843506 -0.36311399936676025 0.005355000030249357 -0.9989169836044312 0.046216998249292374
          0.38955700397491455 -0.8821830153465271 0.26457199454307556 0.49168699979782104 -0.8548880219459534 0.1655620038509369
          -0.7802900075912476 -0.4203900098800659 -0.4630550146102905 -0.8018360137939453 -0.4108569920063019 -0.43388399481773376
          -0.6813549995422363 -0.6633579730987549 -0.30937299132347107 -0.758234977722168 -0.44107601046562195 -0.4801369905471802
          -0.1577340066432953 -0.9850550293922424 -0.06918100267648697 -0.44718998670578003 -0.8867759704589844 -0.11683499813079834
          0.03772500157356262 -0.9950979948043823 0.0914200022816658 0.006173999980092049 -0.9969260096549988 0.07810100167989731
          -0.7029420137405396 -0.4645029902458191 -0.5386180281639099 -0.17128099501132965 -0.7272689938545227 -0.66463702917099
          -0.5388919711112976 -0.5037209987640381 -0.6751750111579895 0.4342089891433716 -0.846917986869812 0.3069069981575012
          0.5321509838104248 -0.8333420157432556 0.14951899647712708 0.568228006362915 -0.8056259751319885 -0.1675799936056137
          -0.020488999783992767 -0.6409689784049988 -0.7672929763793945 0.25388601422309875 -0.7526370286941528 -0.6075189709663391
          0.414885014295578 -0.8172330260276794 -0.40000098943710327 0.47422099113464355 -0.8613849878311157 0.1820179969072342
          0.444227010011673 -0.8793619871139526 0.17142100632190704 -0.8685619831085205 -0.21649399399757385 -0.44579198956489563
          -0.8821790218353271 -0.20821799337863922 -0.4223819971084595 -0.8425019979476929 -0.40413400530815125 -0.3561829924583435
          -0.8831490278244019 -0.24772700667381287 -0.3983460068702698 -0.7638540267944336 -0.6016579866409302 -0.23352700471878052
          -0.8574029803276062 -0.2282409965991974 -0.4612649977207184 -0.6055930256843567 -0.7947819828987122 -0.039733000099658966
          -0.17165100574493408 -0.976377010345459 0.13123999536037445 0.22427600622177124 -0.9422379732131958 0.248772993683815
          -0.768293023109436 -0.29060500860214233 -0.5703290104866028 -0.29108500480651855 -0.5613880157470703 -0.7746689915657043
          -0.5077419877052307 -0.44786301255226135 -0.735945999622345 0.41794300079345703 -0.8779100179672241 0.23366299271583557
          0.6227669715881348 -0.7310720086097717 0.27873799204826355 0.6441149711608887 -0.7646480202674866 0.02072799950838089
          0.5643929839134216 -0.7846469879150391 -0.25649601221084595 -0.028630999848246574 -0.6346399784088135 -0.7722769975662231
          -0.13588500022888184 -0.6679490208625793 -0.7316960096359253 0.17744800448417664 -0.8220980167388916 -0.540988028049469
          0.4158320128917694 -0.834181010723114 -0.3622500002384186 0.4865399897098541 -0.8283029794692993 0.27783799171447754
          0.4834739863872528 -0.8539419770240784 0.19244800508022308 -0.92740797996521 -0.07755900174379349 -0.3659220039844513
          -0.8599910140037537 -0.044447001069784164 -0.5083699822425842 -0.9129379987716675 -0.20769000053405762 -0.351296991109848
          -0.8814169764518738 -0.3983300030231476 -0.25384700298309326 -0.8520230054855347 -0.4978410005569458 -0.16190199553966522
          -0.8194550275802612 -0.13470199704170227 -0.5570899844169617 -0.7360320091247559 -0.6735429763793945 0.06779900193214417
          -0.4630250036716461 -0.8288570046424866 0.3140139877796173 -0.03985400125384331 -0.9062470197677612 0.420864999294281
          0.20777000486850739 -0.8228039741516113 0.528984010219574 -0.668724000453949 -0.28112900257110596 -0.6883119940757751
          -0.44064000248908997 -0.4010150134563446 -0.8031330108642578 0.6397879719734192 -0.6913530230522156 0.3357110023498535
          0.5899140238761902 -0.72639000415802 0.35264500975608826 0.6935279965400696 -0.6868900060653687 0.2172580063343048
          0.771327018737793 -0.5129370093345642 0.3767629861831665 0.7526540160179138 -0.6545619964599609 -0.07113700360059738
          0.6486819982528687 -0.679315984249115 -0.3431349992752075 -0.13392400741577148 -0.6240720152854919 -0.7698050141334534
          0.1721460074186325 -0.7940059900283813 -0.5830270051956177 0.3985689878463745 -0.7914339900016785 -0.4634389877319336
          0.6213750243186951 -0.695281982421875 -0.3612160086631775 0.4751349985599518 -0.7215039730072021 0.5036649703979492
          0.38143599033355713 -0.7050480246543884 0.5978400111198425 -0.9215610027313232 -0.058681000024080276 -0.3837740123271942
          -0.8797550201416016 -0.0351330004632473 -0.47412699460983276 -0.9518709778785706 -0.02597000077366829 -0.3053950071334839
          -0.7379059791564941 0.03526100143790245 -0.6739820241928101 -0.7829089760780334 0.13335999846458435 -0.6076750159263611
          -0.7349029779434204 -0.11424700170755386 -0.6684799790382385 -0.8172680139541626 0.06661699712276459 -0.5723940134048462
          -0.9534720182418823 -0.12462200224399567 -0.2745189964771271 -0.8962050080299377 -0.09804300218820572 -0.432669997215271
          -0.9274020195007324 -0.3477169871330261 -0.1379079967737198 -0.8615180253982544 -0.5076310038566589 -0.009902999736368656
          -0.663686990737915 -0.22801800072193146 -0.7124099731445312 -0.7782350182533264 -0.6049630045890808 0.16843299567699432
          -0.19887599349021912 -0.7865200042724609 0.5846670269966125 -0.5932450294494629 -0.7103980183601379 0.37867501378059387
          0.10667300224304199 -0.7396100163459778 0.6645280122756958 -0.4718889892101288 -0.2800480127334595 -0.8359990119934082
          -0.15247799456119537 -0.42181700468063354 -0.8937680125236511 0.7361840009689331 -0.5046399831771851 0.450967013835907
          0.5807589888572693 -0.6316329836845398 0.5135740041732788 0.8254770040512085 -0.5107100009918213 0.240339994430542
          0.8070700168609619 -0.41296300292015076 0.42201900482177734 0.8935080170631409 -0.33079099655151367 0.3036780059337616
          0.8819720149040222 -0.31358298659324646 0.35183799266815186 0.9023900032043457 -0.42864999175071716 -0.044178999960422516
          0.7912359833717346 -0.4991540014743805 -0.35325801372528076 0.7072370052337646 -0.48450401425361633 -0.5148509740829468
          0.18310199677944183 -0.5993300080299377 -0.7792800068855286 0.5239400267601013 -0.637578010559082 -0.5647850036621094
          0.6860209703445435 -0.5264289975166321 -0.5022429823875427 0.41478100419044495 -0.6739760041236877 0.611320972442627
          0.2595379948616028 -0.6917480230331421 0.6738880276679993 -0.9476479887962341 -0.06169300153851509 -0.31330201029777527
          -0.9075000286102295 -0.047763001173734665 -0.41732800006866455 -0.9638929963111877 -0.03348100185394287 -0.26417800784111023
          -0.9524030089378357 0.04399900138378143 -0.3016490042209625 -0.6381880044937134 0.2301580011844635 -0.7346720099449158
          -0.7136600017547607 0.0036899999249726534 -0.7004830241203308 -0.5347070097923279 0.10013099759817123 -0.8390840291976929
          -0.714028000831604 0.1871740072965622 -0.6746330261230469 -0.7240560054779053 0.16085800528526306 -0.6707220077514648
          -0.5494409799575806 -0.14597199857234955 -0.8226829767227173 -0.6833800077438354 0.020208999514579773 -0.7297829985618591
          -0.9560120105743408 -0.19226199388504028 -0.22153499722480774 -0.8256250023841858 -0.5515400171279907 0.11894000321626663
          -0.9293370246887207 -0.36131200194358826 -0.07607600092887878 -0.33489298820495605 -0.7541940212249756 0.5648339986801147
          0.001227000029757619 -0.7465559840202332 0.6653209924697876 -0.7078199982643127 -0.6341189742088318 0.31126201152801514
          -0.774586021900177 -0.5786049962043762 0.25540900230407715 -0.07784800231456757 -0.314179003238678 -0.9461669921875
          -0.32737401127815247 -0.18820400536060333 -0.925961971282959 0.08184800297021866 -0.3415600061416626 -0.9362890124320984
          0.22545500099658966 -0.3822610080242157 -0.8961279988288879 0.7928509712219238 -0.32732000946998596 0.5140510201454163
          0.6541619896888733 -0.48672500252723694 0.5789399743080139 0.8012509942054749 -0.3961640000343323 0.448388010263443
          0.9230210185050964 -0.3488380014896393 0.16231000423431396 0.9554629921913147 -0.25789499282836914 0.1434600055217743
          0.8532750010490417 -0.2806679904460907 0.43948599696159363 0.9282439947128296 -0.1765509992837906 0.3274039924144745
          0.9260709881782532 -0.3368619978427887 -0.17004700005054474 0.7754979729652405 -0.38899099826812744 -0.4972819983959198
          0.7315739989280701 -0.4093700051307678 -0.5451760292053223 0.4874800145626068 -0.30057400465011597 -0.8197669982910156
          0.6420729756355286 -0.3662079870700836 -0.6735230088233948 0.6143640279769897 -0.33378198742866516 -0.7149450182914734
          0.46850401163101196 -0.49599799513816833 -0.7310879826545715 0.5038120150566101 -0.40651100873947144 -0.7621819972991943
          0.19724200665950775 -0.5804659724235535 0.7900350093841553 0.5173959732055664 -0.49612000584602356 0.6972560286521912
          0.039367999881505966 -0.6556980013847351 0.7539960145950317 -0.07103700190782547 -0.7283130288124084 0.681551992893219
          -0.952875018119812 -0.27956700325012207 -0.11777599900960922 -0.9402520060539246 -0.07585600018501282 -0.3319219946861267
          -0.9885609745979309 -0.04204300045967102 -0.14484499394893646 -0.9611579775810242 -0.026138000190258026 -0.2747580111026764
          -0.8863890171051025 0.008410000242292881 -0.4628640115261078 -0.9845460057258606 0.0057390001602470875 -0.17503400146961212
          -0.9631459712982178 0.057534001767635345 -0.2627530097961426 -0.9997140169143677 0.011806000024080276 -0.020796999335289
          -0.9395170211791992 0.23470300436019897 -0.24944500625133514 -0.9864190220832825 0.13247400522232056 -0.09709499776363373
          -0.43085798621177673 0.26897600293159485 -0.8614019751548767 -0.5089619755744934 0.20409899950027466 -0.8362420201301575
          -0.7352539896965027 0.035714998841285706 -0.6768509745597839 -0.5395399928092957 0.02240700088441372 -0.8416619896888733
          -0.3281410038471222 0.14578799903392792 -0.9333109855651855 -0.25814101099967957 0.06681200116872787 -0.9637939929962158
          -0.48100000619888306 0.028087999671697617 -0.8762710094451904 -0.9398069977760315 -0.32415100932121277 -0.10811199992895126
          -0.8820250034332275 -0.4583660066127777 0.1092350035905838 -0.45684000849723816 -0.6785849928855896 0.5751699805259705
          -0.8958479762077332 -0.44202399253845215 0.045517001301050186 -0.7353540062904358 -0.5951189994812012 0.3241730034351349
          -0.03513000160455704 -0.14771300554275513 -0.9884060025215149 0.23274299502372742 -0.20281100273132324 -0.9511560201644897
          0.33996400237083435 -0.22415299713611603 -0.9133340120315552 0.6712790131568909 -0.28979599475860596 0.6822050213813782
          0.9457259774208069 -0.12783099710941315 0.29876598715782166 0.9435970187187195 -0.13131000101566315 0.3039439916610718
          0.7582889795303345 -0.29621198773384094 0.5807380080223083 0.6747509837150574 -0.3528830111026764 0.6482160091400146
          0.9254040122032166 -0.3647400140762329 0.10292399674654007 0.8700879812240601 -0.14970499277114868 0.4696120023727417
          0.8848900198936462 -0.017534999176859856 0.46546998620033264 0.9246119856834412 -0.10815399885177612 0.36523398756980896
          0.8820549845695496 -0.3745329976081848 -0.2858409881591797 0.6928600072860718 -0.42663899064064026 -0.5813120007514954
          0.6131870150566101 -0.3647550046443939 -0.7006819844245911 0.43202999234199524 -0.2341659963130951 -0.8709279894828796
          0.3086470067501068 -0.06468699872493744 -0.9489750266075134 0.3266240060329437 -0.1795479953289032 -0.927944004535675
          0.38593998551368713 -0.418722003698349 0.8220229744911194 0.20511500537395477 -0.43007999658584595 0.8791810274124146
          -0.04566299915313721 -0.5113800168037415 0.8581410050392151 0.04958200082182884 -0.3692449927330017 0.9280089735984802
          0.5646839737892151 -0.2530730068683624 0.7855479717254639 -0.25018200278282166 -0.6037430167198181 0.7569040060043335
          -0.8966699838638306 -0.41982799768447876 0.14045000076293945 -0.8232120275497437 -0.4960249960422516 0.2761920094490051
          -0.9149960279464722 -0.4014430046081543 0.0403130017220974 -0.9829509854316711 -0.1619960069656372 -0.08697099983692169
          -0.9898949861526489 -0.005716000217944384 -0.14169000089168549 -0.8657580018043518 0.026976000517606735 -0.4997360110282898
          -0.9430220127105713 0.02095700055360794 -0.332069993019104 -0.9950339794158936 0.012504000216722488 0.09874700009822845
          -0.9770770072937012 0.18877999484539032 -0.09839600324630737 -0.9971529841423035 0.046487998217344284 -0.05937400087714195
          -0.9995229840278625 -0.004796000197529793 0.03050900064408779 -0.9949650168418884 -0.020503999665379524 0.09810200333595276
          -0.9969239830970764 -0.01629900000989437 0.07665400207042694 -0.9743980169296265 0.1732970029115677 -0.14323900640010834
          -0.9507240056991577 0.23345500230789185 -0.20401600003242493 -0.9610769748687744 0.26718100905418396 -0.07031799852848053
          -0.26156800985336304 0.28762298822402954 -0.9213330149650574 -0.1523600071668625 0.30007800459861755 -0.9416689872741699
          -0.3349829912185669 0.159170001745224 -0.9286829829216003 -0.20253600180149078 0.014836999587714672 -0.9791629910469055
          -0.5451989769935608 0.0361969992518425 -0.8375250101089478 -0.6186270117759705 0.06661199778318405 -0.7828559875488281
          -0.7709450125694275 0.05578500032424927 -0.6344550251960754 -0.826807975769043 0.04917300119996071 -0.5603299736976624
          -0.3039129972457886 0.03183100000023842 -0.9521679878234863 -0.13247999548912048 0.2045000046491623 -0.9698600172996521
          -0.14341099560260773 0.12771999835968018 -0.9813870191574097 -0.08369199931621552 0.03505999967455864 -0.9958750009536743
          0.04969700053334236 0.10729700326919556 -0.9929839968681335 -0.5772519707679749 -0.5591909885406494 0.5950509905815125
          -0.6132640242576599 -0.5913140177726746 0.5236939787864685 0.09969499707221985 -0.06923100352287292 -0.9926069974899292
          0.12770600616931915 -0.07139299809932709 -0.989238977432251 0.7098119854927063 -0.19866499304771423 0.6757950186729431
          0.48911699652671814 -0.1781959980726242 0.8538209795951843 0.9097300171852112 -0.10369300097227097 0.40204399824142456
          0.8263840079307556 -0.1705559939146042 0.5366560220718384 0.8323739767074585 -0.5049840211868286 -0.22835199534893036
          0.841185986995697 -0.5332940220832825 -0.08946599811315536 0.8956170082092285 -0.4440140128135681 -0.02686999924480915
          0.9430590271949768 -0.28678399324417114 0.168504998087883 0.819238007068634 -0.03719399869441986 0.5722460150718689
          0.8091790080070496 0.05840599909424782 0.5846520066261292 0.8562440276145935 0.058375999331474304 0.5132629871368408
          0.9796720147132874 -0.11766999959945679 0.16247199475765228 0.9727399945259094 0.08541300147771835 0.21559500694274902
          0.9078540205955505 0.10194499790668488 0.40670499205589294 0.7067689895629883 -0.37375199794769287 -0.6006559729576111
          0.5710160136222839 -0.34605899453163147 -0.7444360256195068 0.5318080186843872 -0.2632020115852356 -0.8049250245094299
          0.47783198952674866 -0.2281620055437088 -0.8483039736747742 0.2749730050563812 -0.06413500010967255 -0.959309995174408
          0.16064199805259705 0.09439799934625626 -0.9824879765510559 0.06755200028419495 0.10673800110816956 -0.9919899702072144
          0.22943300008773804 0.07923000305891037 -0.9700940251350403 0.331167995929718 -0.010235000401735306 -0.9435160160064697
          0.2642250061035156 -0.2759479880332947 0.9241420030593872 -0.15967200696468353 -0.42072999477386475 0.8930230140686035
          -0.11426500231027603 -0.27442899346351624 0.9547939896583557 -0.03251799941062927 -0.2348649948835373 0.9714840054512024
          -0.45350000262260437 -0.42271798849105835 0.7846320271492004 -0.7779539823532104 -0.517956018447876 0.355679988861084
          -0.920415997505188 -0.36268100142478943 0.1459369957447052 -0.9495570063591003 -0.23296299576759338 0.2099280059337616
          -0.9772279858589172 0.010963000357151031 -0.21190699934959412 -0.9036480188369751 0.028171999379992485 -0.42734798789024353
          -0.9344609975814819 -0.18125900626182556 0.30647701025009155 -0.9544180035591125 0.17021100223064423 0.2451840043067932
          -0.8536040186882019 -0.008444000035524368 0.5208529829978943 -0.9882990121841431 0.11170300096273422 -0.10386499762535095
          -0.9978309869766235 0.008767000399529934 -0.06523799896240234 -0.9902859926223755 0.07978600263595581 0.11387500166893005
          -0.947318971157074 0.044071000069379807 0.3172439932823181 -0.9757750034332275 0.012907000258564949 0.21839399635791779
          -0.908827006816864 0.02069699950516224 0.4166580140590668 -0.9854099750518799 -0.029516000300645828 0.1676180064678192
          -0.9813979864120483 0.1913139969110489 0.015999000519514084 -0.9451190233230591 0.19115899503231049 0.26496899127960205
          -0.1273909956216812 0.11227600276470184 -0.9854769706726074 0.04673700034618378 0.25309398770332336 -0.9663119912147522
          0.024521000683307648 0.2265239953994751 -0.9736970067024231 0.1223289966583252 0.2040189951658249 -0.9712939858436584
          -0.4217599928379059 0.04173000156879425 -0.9057469964027405 -0.7288680076599121 0.0663909986615181 -0.6814280152320862
          -0.7348780035972595 0.050237998366355896 -0.6763359904289246 -0.8345450162887573 0.04596399888396263 -0.5490189790725708
          -0.12062899768352509 0.020938999950885773 -0.9924769997596741 0.5827779769897461 0.13607600331306458 -0.8011569976806641
          0.13188600540161133 0.03608100116252899 -0.9906079769134521 0.20409999787807465 0.16213999688625336 -0.9654290080070496
          0.3873629868030548 0.09375400096178055 -0.9171479940414429 0.14687299728393555 0.1809290051460266 -0.9724680185317993
          -0.7994470000267029 -0.407166987657547 0.4417000114917755 -0.6466420292854309 -0.4066790044307709 0.6453419923782349
          0.5714930295944214 -0.12096899747848511 0.8116409778594971 0.599524974822998 -0.1437319964170456 0.7873439788818359
          0.41665199398994446 -0.22244200110435486 0.881430983543396 0.25185099244117737 -0.2394929975271225 0.9376639723777771
          0.6735739707946777 -0.08920300006866455 0.7337170243263245 0.8133339881896973 -0.4876540005207062 -0.31730398535728455
          0.8977590203285217 -0.3958440124988556 -0.19322599470615387 0.9468039870262146 -0.32178398966789246 -0.004131000023335218
          0.8545709848403931 0.12068299949169159 0.5051190257072449 0.6995480060577393 0.004951000213623047 0.7145689725875854
          0.8091239929199219 0.1609880030155182 0.5651559829711914 0.8399410247802734 0.13447000086307526 0.5257530212402344
          0.8789240121841431 0.22925099730491638 0.41825398802757263 0.9606170058250427 -0.2527500092983246 -0.11546400189399719
          0.9991250038146973 -0.041398998349905014 -0.005967000033706427 0.9892330169677734 0.0782570019364357 0.12366600334644318
          0.9528499841690063 0.17742900550365448 0.2461639940738678 0.9531779885292053 0.28123199939727783 0.111176997423172
          0.9793450236320496 0.200532004237175 0.025905000045895576 0.9102029800415039 0.3171040117740631 0.26641300320625305
          0.8504970073699951 -0.28029200434684753 -0.44507500529289246 0.5078120231628418 -0.16853800415992737 -0.8448209762573242
          0.6950650215148926 -0.20587599277496338 -0.6888390183448792 0.3045620024204254 -0.09857200086116791 -0.9473779797554016
          0.34202098846435547 -0.1484230011701584 -0.9278969764709473 0.30128398537635803 -0.07698699831962585 -0.9504219889640808
          0.12546299397945404 0.09194699674844742 -0.9878280162811279 -0.3775080144405365 -0.2318190038204193 0.8965200185775757
          -0.32775700092315674 -0.1779090017080307 0.9278600215911865 -0.21921899914741516 -0.2530829906463623 0.9422799944877625
          -0.47425100207328796 -0.16090300679206848 0.8655610084533691 0.14036700129508972 -0.2770940065383911 0.950534999370575
          -0.6494759917259216 -0.22390000522136688 0.7266700267791748 -0.8108140230178833 -0.33966198563575745 0.47666698694229126
          -0.9501349925994873 0.015243000350892544 -0.31146499514579773 -0.8958020210266113 0.03147599846124649 -0.44333699345588684
          -0.9904069900512695 -0.00660100020468235 0.13802599906921387 -0.9953389763832092 0.026996999979019165 -0.09258799999952316
          -0.9124280214309692 0.05349100008606911 -0.40572699904441833 -0.8556050062179565 0.06871800124645233 -0.513047993183136
          -0.8279709815979004 -0.2187339961528778 0.5163519978523254 -0.8694369792938232 0.12604700028896332 0.47769299149513245
          -0.7444990277290344 0.0023759999312460423 0.667618989944458 -0.6011710166931152 -0.09373000264167786 0.7936050295829773
          -0.9582740068435669 0.13617700338363647 0.2513290047645569 -0.9870150089263916 0.1487240046262741 0.06069200113415718
          -0.8953160047531128 0.1348710060119629 0.4245229959487915 -0.7406330108642578 0.14468899369239807 0.6561459898948669
          -0.9170730113983154 -0.003360999980941415 0.39870598912239075 -0.61598801612854 0.10673899948596954 0.7804909944534302
          -0.7585960030555725 0.017210999503731728 0.6513339877128601 -0.926846981048584 0.15119199454784393 0.34365200996398926
          -0.8821380138397217 0.1296280026435852 0.45280200242996216 0.015482000075280666 0.18920500576496124 -0.981814980506897
          -0.0681539997458458 0.18535299599170685 -0.9803060293197632 0.8069729804992676 0.12161099910736084 -0.5779320001602173
          -0.6880940198898315 0.02122800052165985 -0.7253109812736511 -0.15723800659179688 0.005423000082373619 -0.9875460267066956
          -0.21933899819850922 0.009335000067949295 -0.9756039977073669 -0.45099300146102905 0.013849000446498394 -0.8924199938774109
          -0.8596029877662659 -0.01991100050508976 -0.510574996471405 0.1184149980545044 0.012625000439584255 -0.9928839802742004
          0.9448559880256653 0.06048300117254257 -0.32185301184654236 0.45704999566078186 0.06394899636507034 -0.8871390223503113
          0.11382400244474411 0.1959030032157898 -0.9739949703216553 0.5328530073165894 0.32988399267196655 -0.7792590260505676
          0.3416230082511902 0.27753400802612305 -0.8979250192642212 0.6198980212211609 0.14947299659252167 -0.7703149914741516
          0.15248599648475647 0.2675839960575104 -0.9513919949531555 0.5166379809379578 -0.08356399834156036 0.8521159887313843
          0.4091019928455353 -0.2308569997549057 0.8828030228614807 0.5892919898033142 -0.04506000131368637 0.8066629767417908
          0.591385006904602 0.030873000621795654 0.8057979941368103 0.8835039734840393 -0.00044100001105107367 0.468423992395401
          0.7793059945106506 0.1260560005903244 0.613834023475647 0.9197160005569458 0.145797997713089 0.3645069897174835
          0.6301789879798889 0.06635800004005432 0.7736089825630188 0.7241790294647217 0.17069099843502045 0.6681529879570007
          0.7713819742202759 0.27112099528312683 0.5757279992103577 0.905040979385376 0.3348970115184784 0.2621940076351166
          0.8773390054702759 0.47460898756980896 0.07086999714374542 0.9468460083007812 -0.10769899934530258 -0.30312299728393555
          0.956725001335144 0.08191300183534622 -0.27922698855400085 0.9929869771003723 0.11525300145149231 -0.026347000151872635
          0.9111130237579346 0.38592401146888733 -0.14469200372695923 0.9288939833641052 0.22493499517440796 -0.2942099869251251
          0.7684440016746521 -0.0992330014705658 -0.6321759819984436 0.897704005241394 -0.07083500176668167 -0.4348680078983307
          0.3428739905357361 -0.020044999197125435 -0.9391679763793945 0.549107015132904 -0.05999600142240524 -0.8335959911346436
          0.21491600573062897 0.1263210028409958 -0.9684290289878845 -0.23064400255680084 -0.23440100252628326 0.9443830251693726
          0.5974519848823547 -0.20445400476455688 0.7754030227661133 -0.6641460061073303 -0.0870010033249855 0.7425230145454407
          0.28643399477005005 -0.20836199820041656 0.935168981552124 -0.9653210043907166 -0.02097499929368496 -0.26022401452064514
          -0.9972119927406311 -0.011950000189244747 0.07365699857473373 -0.8432829976081848 -0.05089600011706352 0.5350540280342102
          -0.821029007434845 0.10909199714660645 0.5603659749031067 -0.5224549770355225 0.24082399904727936 0.8179510235786438
          -0.7723209857940674 0.21868500113487244 0.5964040160179138 -0.4268220067024231 0.16833099722862244 0.8885310292243958
          -0.2711620032787323 0.19356399774551392 0.942870020866394 -0.2521750032901764 0.13606099784374237 0.9580680131912231
          -0.5127930045127869 0.07472199946641922 0.8552539944648743 -0.5052919983863831 0.02211100049316883 0.8626649975776672
          0.07977599650621414 0.2091040015220642 -0.9746339917182922 -0.49000900983810425 -0.04086900129914284 -0.8707590103149414
          -0.698639988899231 -0.0709410011768341 -0.7119479775428772 0.08980599790811539 0.0026549999602138996 -0.9959560036659241
          -0.2571159899234772 -0.0038980001118034124 -0.9663730263710022 0.09209500253200531 -0.0008650000090710819 -0.9957500100135803
          -0.04051100090146065 -0.01742600090801716 -0.9990270137786865 -0.31301000714302063 -0.027181999757885933 -0.9493610262870789
          -0.9147719740867615 -0.08959999680519104 -0.3939099907875061 -0.7825170159339905 -0.13589000701904297 -0.6076189875602722
          0.42985299229621887 0.011421999894082546 -0.9028270244598389 0.6673259735107422 -0.01569399982690811 -0.7445999979972839
          0.725924015045166 0.05539799854159355 -0.6855400204658508 0.3343450129032135 0.3413879871368408 -0.8784459829330444
          0.2977370023727417 0.44805198907852173 -0.842972993850708 0.5222309827804565 0.5404130220413208 -0.6597189903259277
          0.7006080150604248 0.42201998829841614 -0.5753669738769531 0.857217013835907 0.24345999956130981 -0.4537689983844757
          0.2807370126247406 -0.09633199870586395 0.9549379944801331 0.458622008562088 0.053373999893665314 0.8870270252227783
          0.5336660146713257 0.04419099912047386 0.844539999961853 0.437173992395401 0.11329299956560135 0.892212986946106
          0.3085489869117737 0.2217549979686737 0.9249979853630066 0.7921559810638428 -0.08206400275230408 0.6047760248184204
          0.9777010083198547 -0.04700300097465515 0.20467500388622284 0.9007980227470398 -0.08939599990844727 0.42493799328804016
          0.7384999990463257 0.1791200041770935 0.6500260233879089 0.7166020274162292 -0.006862000096589327 0.6974480152130127
          0.9387289881706238 0.3410550057888031 0.049695998430252075 0.9950640201568604 0.07643599808216095 0.06328599900007248
          0.4315289855003357 0.19520999491214752 0.8807250261306763 0.5938060283660889 0.22639399766921997 0.7721009850502014
          0.6965219974517822 0.2993740141391754 0.6520980000495911 0.8246250152587891 0.5562670230865479 -0.10276400297880173
          0.8331869840621948 0.506413996219635 -0.2221350073814392 0.6872400045394897 0.6329759955406189 -0.3564310073852539
          0.7944560050964355 0.12112700194120407 -0.5951200127601624 0.6832559704780579 0.5846760272979736 -0.43739598989486694
          0.7191359996795654 0.3918200135231018 -0.5738649964332581 0.7151700258255005 0.2655090093612671 -0.6465579867362976
          0.5135660171508789 0.07161100208759308 -0.8550559878349304 0.4225049912929535 0.22701600193977356 -0.8774700164794922
          0.7814429998397827 -0.13852299749851227 0.6084060072898865 -0.5004019737243652 -0.16300800442695618 0.8503090143203735
          0.827534019947052 -0.08613000065088272 0.554768979549408 -0.7181749939918518 0.025582000613212585 0.6953920125961304
          -0.9847419857978821 -0.07079199701547623 -0.1589689999818802 -0.9841189980506897 -0.09503600001335144 0.14992399513721466
          -0.4773150086402893 -0.09708499908447266 0.8733519911766052 -0.7305480241775513 -0.14521899819374084 0.6672419905662537