<?xml version="1.0"?>
<VTKFile type="PolyData" version="0.1" byte_order="LittleEndian" header_type="UInt32" compressor="vtkZLibDataCompressor">
  <PolyData>
    <Piece NumberOfPoints="2838" NumberOfVerts="0" NumberOfLines="0" NumberOfStrips="0" NumberOfPolys="5672">
      <PointData Normals="Normals">
        <DataArray type="Float32" Name="Normals" NumberOfComponents="3" format="ascii" RangeMin="0.9999992461296207" RangeMax="1.000000724913756">
          -0.8956360220909119 -0.25251901149749756 -0.3661549985408783 -0.8254259824752808 -0.2484540045261383 -0.5068950057029724
          -0.8146929740905762 -0.36572301387786865 -0.4500240087509155 -0.8951900005340576 -0.3874509930610657 -0.2202640026807785
          -0.8031899929046631 -0.19292999804019928 -0.5636169910430908 -0.948311984539032 -0.31282100081443787 -0.05335500091314316
          -0.9657279849052429 -0.1702059954404831 -0.19595900177955627 -0.9469519853591919 -0.12357400357723236 -0.29666799306869507
          -0.7412329912185669 -0.1977660059928894 -0.6414539813995361 -0.8308749794960022 -0.5179939866065979 -0.20329299569129944
          -0.7613419890403748 -0.4285790026187897 -0.48649701476097107 -0.7200469970703125 -0.29106199741363525 -0.6299329996109009
          -0.8872259855270386 -0.4613089859485626 -0.004801999777555466 -0.5863540172576904 -0.16186299920082092 -0.7937189936637878
          -0.6887189745903015 -0.2369990050792694 -0.6851990222930908 -0.5504599809646606 -0.27648699283599854 -0.7877489924430847
          -0.8678770065307617 -0.1613450050354004 -0.46984800696372986 -0.9663609862327576 -0.22072100639343262 0.13201899826526642
          -0.8937029838562012 -0.3954769968986511 0.2118770033121109 -0.9319220185279846 -0.31233900785446167 0.18429699540138245
          -0.9960029721260071 -0.08890700340270996 -0.008581999689340591 -0.9976279735565186 -0.06039400026202202 -0.03303899988532066
          -0.9830650091171265 -0.06739900261163712 -0.17041100561618805 -0.9543009996414185 -0.09785600006580353 -0.28237101435661316
          -0.5662410259246826 -0.15024399757385254 -0.8104310035705566 -0.7782469987869263 -0.6124849915504456 -0.1385439932346344
          -0.8074740171432495 -0.5861780047416687 0.0661889985203743 -0.7374789714813232 -0.5241420269012451 -0.42590999603271484
          -0.7322819828987122 -0.36754098534584045 -0.5733039975166321 -0.683184027671814 -0.2873480021953583 -0.671334981918335
          -0.615854024887085 -0.2504110038280487 -0.7470059990882874 -0.8258870244026184 -0.5147969722747803 0.22998900711536407
          -0.39236199855804443 -0.22441299259662628 -0.8920149803161621 -0.6150230169296265 -0.2671569883823395 -0.7418709993362427
          -0.7754210233688354 -0.1704079955816269 -0.6080160140991211 -0.44432300329208374 -0.32248300313949585 -0.835811972618103
          -0.5321270227432251 -0.24332499504089355 -0.810945987701416 -0.9256010055541992 -0.08221299946308136 -0.3694649934768677
          -0.8905959725379944 -0.3189440071582794 0.3242129981517792 -0.9776470065116882 -0.12328899651765823 0.17031000554561615
          -0.8941869735717773 -0.2857159972190857 0.3446680009365082 -0.8148080110549927 -0.4329870045185089 0.3854990005493164
          -0.9880890250205994 -0.15072700381278992 0.030997000634670258 -0.9942060112953186 -0.10397999733686447 -0.027261000126600266
          -0.9713910222053528 -0.13128100335597992 -0.1978989988565445 -0.8623239994049072 -0.1178480014204979 -0.492453008890152
          -0.4974899888038635 -0.09954600036144257 -0.8617389798164368 -0.37531399726867676 -0.06969799846410751 -0.9242740273475647
          0.7473379969596863 -0.6633020043373108 -0.03894500061869621 -0.6321349740028381 -0.7658759951591492 0.11764399707317352
          -0.6363019943237305 -0.7247499823570251 -0.2643040120601654 -0.7707700133323669 -0.5737490057945251 0.276993989944458
          -0.7001559734344482 -0.5662559866905212 -0.4348979890346527 -0.6563360095024109 -0.468189001083374 -0.5916270017623901
          -0.5886759757995605 -0.4495239853858948 -0.6718549728393555 -0.3862549960613251 -0.24458399415016174 -0.8893740177154541
          -0.3891409933567047 -0.11116299778223038 -0.9144459962844849 -0.37899699807167053 -0.13906200230121613 -0.9148899912834167
          -0.3096809983253479 -0.33928999304771423 -0.8882459998130798 -0.4138149917125702 -0.342195987701416 -0.8435990214347839
          -0.3913300037384033 -0.22932200133800507 -0.891219973564148 -0.6607170104980469 -0.19969399273395538 -0.7235850095748901
          -0.8016819953918457 -0.0858059972524643 -0.5915600061416626 -0.37332698702812195 -0.32353198528289795 -0.8694559931755066
          -0.6330010294914246 -0.14973300695419312 -0.7595329880714417 -0.6545109748840332 -0.11322599649429321 -0.7475259900093079
          -0.6520569920539856 -0.0833979994058609 -0.7535690069198608 -0.552308976650238 -0.17522700130939484 -0.815015971660614
          -0.9226719737052917 -0.2996099889278412 0.24271300435066223 -0.7396950125694275 -0.6135590076446533 0.27640101313591003
          -0.8365409970283508 -0.5171080231666565 0.18110600113868713 -0.9679740071296692 -0.24765600264072418 -0.04115400090813637
          -0.9852480292320251 -0.15936200320720673 -0.06236400082707405 -0.9777929782867432 -0.1677899956703186 -0.1255670040845871
          -0.9838070273399353 -0.17358100414276123 -0.04464200139045715 -0.984004020690918 -0.1688939929008484 -0.05666400119662285
          -0.9796800017356873 -0.18318399786949158 -0.08167999982833862 -0.9772740006446838 -0.18069800734519958 -0.11083299666643143
          -0.9334400296211243 -0.1648389995098114 -0.3186179995536804 -0.7834740281105042 -0.03843199834227562 -0.620235025882721
          -0.8137909770011902 -0.20810000598430634 -0.5426220297813416 -0.6856459975242615 -0.18413999676704407 -0.704259991645813
          -0.6716790199279785 -0.19026300311088562 -0.7159940004348755 -0.7257220149040222 -0.07723700255155563 -0.6836389899253845
          0.7480720281600952 -0.6628350019454956 0.03221900016069412 0.37773799896240234 -0.9242709875106812 -0.05511400103569031
          -0.5877010226249695 -0.7844570279121399 0.19807900488376617 -0.7120959758758545 -0.692546010017395 0.11532200127840042
          -0.661549985408783 -0.6889320015907288 0.2961829900741577 -0.6813160181045532 -0.7102519869804382 -0.1770630031824112
          -0.6128020286560059 -0.7399539947509766 -0.2773840129375458 -0.5974209904670715 -0.6506590247154236 -0.46875500679016113
          -0.5107330083847046 -0.49000900983810425 -0.7064300179481506 -0.31520798802375793 -0.4118340015411377 -0.855006992816925
          -0.3425300121307373 -0.23494699597358704 -0.909654974937439 -0.30225399136543274 -0.27456599473953247 -0.9128289818763733
          -0.49799200892448425 -0.11924699693918228 -0.858942985534668 -0.46635299921035767 -0.16110999882221222 -0.8698040246963501
          -0.3567489981651306 -0.3456859886646271 -0.8678889870643616 -0.5163469910621643 -0.19079500436782837 -0.8348550200462341
          -0.47520700097084045 -0.26883700489997864 -0.837797999382019 -0.6900889873504639 -0.10856200009584427 -0.7155349850654602
          -0.7284960150718689 -0.05985499918460846 -0.6824300289154053 -0.30542701482772827 -0.23048900067806244 -0.9238989949226379
          -0.5141599774360657 -0.18176700174808502 -0.8382130265235901 -0.5132889747619629 -0.022989999502897263 -0.8579080104827881
          -0.6207699775695801 -0.03785400092601776 -0.7830790281295776 -0.8613560199737549 -0.4917289912700653 0.12754899263381958
          -0.8947709798812866 -0.4445759952068329 -0.04168400168418884 -0.4975639879703522 -0.7940149903297424 0.3492409884929657
          -0.6106489896774292 -0.7358949780464172 0.2925179898738861 -0.6055240035057068 -0.7715749740600586 0.19496800005435944
          -0.6879749894142151 -0.7091240286827087 0.1543779969215393 -0.6968849897384644 -0.7149220108985901 0.056901998817920685
          -0.8247680068016052 -0.5628150105476379 0.054749999195337296 -0.8332229852676392 -0.5332289934158325 -0.1463100016117096
          -0.9782570004463196 -0.1576240062713623 -0.13479000329971313 -0.9015910029411316 -0.3518010079860687 -0.2517330050468445
          -0.9917460083961487 -0.11023599654436111 -0.06548299640417099 -0.9913280010223389 -0.09009099751710892 0.09566599875688553
          -0.9920539855957031 -0.10805600136518478 0.06444499641656876 -0.9572269916534424 -0.20859499275684357 -0.20051200687885284
          -0.9869109988212585 -0.13826300203800201 -0.0830020010471344 -0.9814429879188538 -0.18872599303722382 -0.033952001482248306
          -0.9643539786338806 -0.20069900155067444 -0.17245599627494812 -0.9724060297012329 -0.2100369930267334 -0.10154099762439728
          -0.977994978427887 -0.20284800231456757 -0.04877199977636337 -0.9734629988670349 -0.18728800117969513 -0.13150300085544586
          -0.9256690144538879 -0.2264609932899475 -0.3030720055103302 -0.877286970615387 -0.2070309966802597 -0.4330190122127533
          -0.8141310214996338 -0.18455199897289276 -0.550574004650116 -0.6001430153846741 -0.18779100477695465 -0.7775369882583618
          -0.5215229988098145 -0.20079199969768524 -0.8292739987373352 -0.5783990025520325 -0.1286879926919937 -0.8055390119552612
          -0.592619001865387 -0.18400900065898895 -0.7841830253601074 -0.525505006313324 -0.19088099896907806 -0.829101026058197
          -0.5032209753990173 -0.17128999531269073 -0.8470110297203064 -0.7506800293922424 -0.1659339964389801 -0.6394889950752258
          -0.684145987033844 -0.17084099352359772 -0.7090539932250977 -0.5394200086593628 -0.8338639736175537 0.11703299731016159
          -0.561905026435852 -0.8271679878234863 0.007439999841153622 -0.406019002199173 -0.8917030096054077 0.20003800094127655
          -0.5000450015068054 -0.8631359934806824 -0.07036799937486649 -0.506971001625061 -0.8275039792060852 -0.24128399789333344
          -0.5110920071601868 -0.740788996219635 -0.4359079897403717 -0.43050500750541687 -0.5840539932250977 -0.6881470084190369
          -0.13254399597644806 -0.6778929829597473 -0.723114013671875 -0.18733100593090057 -0.4419049918651581 -0.8772839903831482
          -0.2776170074939728 -0.5534690022468567 -0.7852389812469482 -0.30440300703048706 -0.6569300293922424 -0.689769983291626
          -0.3743070065975189 -0.3135420083999634 -0.8726890087127686 -0.18508000671863556 -0.48871201276779175 -0.8525879979133606
          -0.5400450229644775 -0.1649470031261444 -0.8253139853477478 -0.47502899169921875 -0.12385500222444534 -0.871209979057312
          -0.371616005897522 -0.18147799372673035 -0.91047602891922 -0.41530200839042664 -0.3419469892978668 -0.8429690003395081
          -0.42847201228141785 -0.30786800384521484 -0.8494870066642761 -0.37428900599479675 -0.24953599274158478 -0.893106997013092
          -0.37853801250457764 -0.31991100311279297 -0.8685430288314819 -0.33571600914001465 -0.20545800030231476 -0.9192829728126526
          -0.21845799684524536 -0.1600559949874878 -0.9626309871673584 -0.41495001316070557 -0.08092900365591049 -0.9062380194664001
          -0.26401400566101074 -0.011760000139474869 -0.964447021484375 -0.20287500321865082 -0.08309400081634521 -0.9756730198860168
          -0.4800899922847748 -0.036368001252412796 -0.8764650225639343 -0.2977699935436249 -0.012280999682843685 -0.9545580148696899
          -0.3224540054798126 -0.8538540005683899 0.4086030125617981 -0.4384230077266693 -0.8238670229911804 0.3592059910297394
          -0.5092849731445312 -0.8331159949302673 0.21574600040912628 -0.3721419870853424 -0.9198070168495178 0.12436199933290482
          -0.7020609974861145 -0.7080910205841064 -0.07561399787664413 -0.7544670104980469 -0.609283983707428 -0.24403199553489685
          -0.8299000263214111 -0.465395987033844 -0.30768799781799316 -0.9929739832878113 -0.10976699739694595 -0.04419400170445442
          -0.946823000907898 -0.26755601167678833 -0.17872099578380585 -0.994005024433136 -0.10932599753141403 -0.0012570000253617764
          -0.9639739990234375 -0.10220099985599518 0.2455810010433197 -0.8831480145454407 -0.1338060051202774 0.4496070146560669
          -0.9599339962005615 -0.08502499759197235 0.2670159935951233 -0.9762529730796814 -0.036786999553442 0.21348699927330017
          -0.9796940088272095 -0.06554800271987915 0.1894800066947937 -0.9894809722900391 -0.1399189978837967 0.036733999848365784
          -0.9848440289497375 -0.1723950058221817 0.019020000472664833 -0.9628549814224243 -0.23888300359249115 -0.12587900459766388
          -0.9456160068511963 -0.2227640002965927 -0.23703700304031372 -0.9465280175209045 -0.1902409940958023 -0.26056501269340515
          -0.8896759748458862 -0.1941400021314621 -0.4132640063762665 -0.8602290153503418 -0.1789260059595108 -0.4774860143661499
          -0.35937198996543884 -0.14827899634838104 -0.9213389754295349 -0.3629469871520996 -0.21166199445724487 -0.9074519872665405
          -0.6674050092697144 -0.15990599989891052 -0.7273240089416504 -0.5127500295639038 -0.1435289978981018 -0.846455991268158
          -0.5322139859199524 -0.18286000192165375 -0.8266260027885437 -0.3723360002040863 -0.1728229969739914 -0.9118649959564209
          -0.5360170006752014 -0.15073800086975098 -0.830640971660614 -0.7141730189323425 -0.1532759964466095 -0.6829820275306702
          -0.7627099752426147 -0.1489650011062622 -0.629351019859314 -0.7598180174827576 -0.14950500428676605 -0.6327120065689087
          -0.2842999994754791 -0.9360899925231934 0.20714299380779266 -0.39202699065208435 -0.9186239838600159 -0.04944400116801262
          -0.3468779921531677 -0.8494099974632263 -0.3977159857749939 -0.35352298617362976 -0.9221850037574768 -0.15683400630950928
          -0.42951101064682007 -0.723052978515625 -0.541031002998352 0.0039900001138448715 -0.6665449738502502 -0.7454550266265869
          0.10283099859952927 -0.8862749934196472 -0.4516009986400604 -0.045478999614715576 -0.914421021938324 -0.4022020101547241
          -0.11982300132513046 -0.8936200141906738 -0.43253400921821594 -0.22958099842071533 -0.7111030220985413 -0.6645489931106567
          0.09541100263595581 -0.7713860273361206 -0.6291750073432922 0.03593900054693222 -0.689096987247467 -0.7237769961357117
          -0.16870500147342682 -0.8751519918441772 -0.45348501205444336 -0.2305620014667511 -0.5286830067634583 -0.8169059753417969
          0.07034900039434433 -0.7403410077095032 -0.6685400009155273 -0.3449000120162964 -0.39888399839401245 -0.849668025970459
          -0.49261200428009033 -0.22630999982357025 -0.8403080105781555 -0.32786500453948975 -0.2800930142402649 -0.9022489786148071
          -0.15825800597667694 -0.31167998909950256 -0.9369149804115295 0.049995001405477524 -0.35057398676872253 -0.9351999759674072
          -0.15063899755477905 -0.258868008852005 -0.9540939927101135 -0.13860200345516205 -0.6175910234451294 -0.7741900086402893
          -0.2487809956073761 -0.19194400310516357 -0.9493499994277954 -0.13064099848270416 -0.20028799772262573 -0.9709879755973816
          0.0907829999923706 -0.0933770015835762 -0.9914829730987549 -0.04803000018000603 -0.2224459946155548 -0.9737610220909119
          -0.06593699753284454 -0.20358900725841522 -0.9768339991569519 -0.029518000781536102 0.059498000890016556 -0.9977920055389404
          -0.0704289972782135 0.012183000333607197 -0.9974420070648193 -0.06263100355863571 0.04490400105714798 -0.9970260262489319
          0.017215000465512276 0.07959900051355362 -0.9966779947280884 -0.17895899713039398 -0.04559699818491936 -0.9827989935874939
          0.014267000369727612 -0.9083899855613708 0.4178810119628906 -0.2593640089035034 -0.8799989819526672 0.397911012172699
          -0.20678099989891052 -0.9762660264968872 0.06439100205898285 0.059477999806404114 -0.9288510084152222 0.36564698815345764
          -0.15702199935913086 -0.9874789714813232 -0.015166000463068485 -0.31168198585510254 -0.9486380219459534 -0.054221998900175095
          -0.47638198733329773 -0.8749790191650391 -0.08644600212574005 -0.6532279849052429 -0.7360110282897949 -0.17770999670028687
          -0.8036569952964783 -0.5455390214920044 -0.237746000289917 -0.5962330102920532 -0.7599490284919739 -0.25881001353263855
          -0.6805269718170166 -0.6878889799118042 -0.2523699998855591 -0.8899760246276855 -0.38355499505996704 -0.24663199484348297
          -0.8945760130882263 -0.4303019940853119 -0.12072599679231644 -0.9840199947357178 -0.14651000499725342 0.10119400173425674
          -0.9561219811439514 -0.292946994304657 0.0034799999557435513 -0.9462419748306274 -0.2747200131416321 0.17074599862098694
          -0.9155259728431702 -0.200547993183136 0.34870201349258423 -0.8581140041351318 -0.13459399342536926 0.4955050051212311
          -0.7903169989585876 -0.19687999784946442 0.5802050232887268 0.9739599823951721 -0.06196700036525726 0.21808500587940216
          0.771274983882904 -0.17732499539852142 0.6113020181655884 -0.8551759719848633 -0.07784099876880646 0.5124589800834656
          -0.9045869708061218 -0.026554999873042107 0.42546001076698303 -0.9046329855918884 0.0205719992518425 0.42569500207901
          -0.9728990197181702 -0.11666099727153778 0.19964399933815002 -0.8928120136260986 -0.014895999804139137 0.4501830041408539
          -0.9823020100593567 -0.17731299996376038 0.06035900115966797 -0.9839109778404236 -0.17713500559329987 -0.023271000012755394
          -0.9788650274276733 -0.18570800125598907 -0.08564899861812592 -0.9777250289916992 -0.18950699269771576 -0.09022200107574463
          -0.9037250280380249 -0.19206100702285767 -0.38261398673057556 -0.9644650220870972 -0.1808599978685379 -0.19260500371456146
          -0.8995599746704102 -0.16962000727653503 -0.40251898765563965 -0.986257016658783 -0.1440970003604889 0.08083099871873856
          -0.3394779860973358 -0.21549800038337708 -0.9155960083007812 -0.09391599893569946 -0.09945099800825119 -0.9905999898910522
          0.02318600006401539 -0.19058699905872345 -0.9813969731330872 -0.034738000482320786 -0.11566200107336044 -0.9926810264587402
          -0.38622400164604187 -0.22214999794960022 -0.8952550292015076 -0.12992200255393982 -0.24841900169849396 -0.9599000215530396
          -0.7748249769210815 -0.13937300443649292 -0.6166219711303711 -0.6789849996566772 -0.13939599692821503 -0.7207970023155212
          -0.3828909993171692 -0.10464400053024292 -0.9178479909896851 -0.4287259876728058 -0.17131400108337402 -0.8870429992675781
          -0.3693059980869293 -0.06038599833846092 -0.927344024181366 -0.46123799681663513 -0.16013799607753754 -0.8727059960365295
          -0.3648979961872101 -0.2090969979763031 -0.907263994216919 -0.2002280056476593 -0.1446319967508316 -0.9690150022506714
          -0.8283889889717102 -0.14015799760818481 -0.5423349738121033 -0.9288169741630554 -0.14936700463294983 -0.3390989899635315
          -0.12377999722957611 -0.9923080205917358 -0.001762000028975308 0.0914589986205101 -0.9575799703598022 0.27327001094818115
          -0.15546700358390808 -0.9700719714164734 -0.1865209937095642 0.02576100081205368 -0.9732099771499634 -0.22847099602222443
          0.2282319962978363 -0.9573879837989807 -0.17697200179100037 0.06794100254774094 -0.985148012638092 -0.1576939970254898
          0.25620898604393005 -0.8641059994697571 -0.43321800231933594 0.174126997590065 -0.795225977897644 -0.5807710289955139
          -0.03940499946475029 -0.9811480045318604 -0.18919800221920013 -0.0734340026974678 -0.9810320138931274 -0.17939800024032593
          0.1727380007505417 -0.7541750073432922 -0.6335470080375671 0.4025239944458008 -0.7953580021858215 -0.4531889855861664
          -0.006624999921768904 -0.6416770219802856 -0.766946017742157 -0.09303600341081619 -0.5005279779434204 -0.8607069849967957
          -0.2581610083580017 -0.33947598934173584 -0.9044939875602722 0.009690999984741211 -0.44068899750709534 -0.8976079821586609
          0.17067499458789825 -0.4395799934864044 -0.8818389773368835 0.15932999551296234 -0.3044469952583313 -0.9391090273857117
          0.39390599727630615 -0.39424899220466614 -0.8303049802780151 -0.008953999727964401 -0.002945000072941184 -0.9999560117721558
          -0.11365299671888351 -0.07029999792575836 -0.9910299777984619 0.18219900131225586 -0.17125800251960754 -0.9682319760322571
          0.41243600845336914 0.16228100657463074 -0.8964160084724426 0.4255070090293884 -0.0205060001462698 -0.9047229886054993
          0.2536650002002716 0.14410899579524994 -0.9564970135688782 0.2860040068626404 -0.23360300064086914 -0.9293180108070374
          0.05441400036215782 0.17061899602413177 -0.9838330149650574 0.1742520034313202 0.32469499111175537 -0.9296290278434753
          0.18169599771499634 0.18102599680423737 -0.9665489792823792 0.3327859938144684 0.33089199662208557 -0.8830429911613464
          0.36868199706077576 0.10871800035238266 -0.9231759905815125 0.2643370032310486 0.1359959989786148 -0.9547939896583557
          0.35715800523757935 0.22355300188064575 -0.9068970084190369 0.2028380036354065 0.024452999234199524 -0.9789069890975952
          0.2438649982213974 -0.8478040099143982 0.47091200947761536 0.3786900043487549 -0.80035001039505 0.46479499340057373
          0.22542299330234528 -0.9111819863319397 0.34486499428749084 -0.04078099876642227 -0.979665994644165 0.19644899666309357
          0.24471800029277802 -0.9399949908256531 0.237745001912117 0.415351003408432 -0.812188982963562 0.4096730053424835
          0.08730100095272064 -0.9958069920539856 0.02734999917447567 -0.13770900666713715 -0.9676650166511536 -0.21133199334144592
          0.20239600539207458 -0.9479100108146667 -0.24597300589084625 -0.474592000246048 -0.8639270067214966 -0.16849899291992188
          -0.9061599969863892 -0.41792699694633484 0.06489100307226181 -0.8064829707145691 -0.5801709890365601 -0.11395999789237976
          -0.6209819912910461 -0.7829359769821167 -0.03731200098991394 -0.5172349810600281 -0.8509179949760437 -0.0916920006275177
          -0.7323830127716064 -0.6807479858398438 0.014055999927222729 -0.9121019840240479 -0.36572501063346863 0.18524500727653503
          -0.8502479791641235 -0.21626199781894684 0.47990599274635315 -0.7167890071868896 -0.1592170000076294 0.6788700222969055
          -0.7940300107002258 -0.11324899643659592 0.5972359776496887 -0.8148580193519592 -0.21588599681854248 0.5379589796066284
          -0.1667270064353943 -0.24825400114059448 0.954239010810852 -0.807515025138855 0.017924999818205833 0.5895739793777466
          -0.853085994720459 0.031053999438881874 0.5208460092544556 -0.6894239783287048 -0.034370001405477524 0.7235419750213623
          -0.7940149903297424 0.062268998473882675 0.6047000288963318 -0.9554539918899536 -0.09745299816131592 0.2785870134830475
          -0.9791330099105835 -0.13990700244903564 0.14739300310611725 -0.792497992515564 0.05249499902129173 0.6076120138168335
          -0.8227279782295227 0.021703999489545822 0.5680209994316101 -0.870868980884552 -0.03587999939918518 0.49020299315452576
          -0.9841269850730896 -0.12670999765396118 0.12424899637699127 -0.9882889986038208 -0.14662399888038635 -0.04226500168442726
          -0.9819160103797913 -0.14256800711154938 -0.12455900013446808 -0.9203889966011047 -0.08642999827861786 0.38133299350738525
          -0.9935899972915649 -0.11203300207853317 0.01508999988436699 -0.9210609793663025 -0.07604099810123444 0.3819209933280945
          -0.9637590050697327 -0.08811499923467636 0.2518010139465332 -0.9772949814796448 -0.0940679982304573 0.18985800445079803
          -0.923803985118866 -0.10741999745368958 0.36748701333999634 0.14155299961566925 -0.062445998191833496 -0.9879590272903442
          0.3288919925689697 0.016623999923467636 -0.944221019744873 0.34769099950790405 -0.0813480019569397 -0.9340739846229553
          0.24498100578784943 -0.18082599341869354 -0.9525160193443298 -0.17288300395011902 -0.19035500288009644 -0.9663730263710022
          0.13544400036334991 -0.19492299854755402 -0.971422016620636 -0.787539005279541 -0.12263599783182144 -0.6039389967918396
          -0.9009810090065002 -0.12383300065994263 -0.4158099889755249 -0.8724640011787415 -0.12092600017786026 -0.4734799861907959
          -0.8952720165252686 -0.1290690004825592 -0.42641499638557434 -0.7980470061302185 -0.12859100103378296 -0.5887150168418884
          -0.7116100192070007 -0.13924899697303772 -0.6886370182037354 -0.5927249789237976 -0.14550699293613434 -0.7921519875526428
          -0.8137689828872681 -0.11522199958562851 -0.5696529746055603 -0.2467080056667328 -0.10021699965000153 -0.9638940095901489
          -0.06981600075960159 -0.14605599641799927 -0.986810028553009 -0.15297000110149384 -0.18127499520778656 -0.9714630246162415
          -0.1505499929189682 -0.2008569985628128 -0.9679830074310303 -0.36926499009132385 -0.13575099408626556 -0.9193559885025024
          -0.033062998205423355 -0.20097699761390686 -0.9790380001068115 -0.9790769815444946 -0.14454099535942078 -0.14323699474334717
          -0.9581220149993896 -0.12142100185155869 -0.2593420147895813 -0.883787989616394 -0.13022500276565552 -0.44940000772476196
          0.040189001709222794 -0.9986280202865601 -0.033560000360012054 0.36374199390411377 -0.8691660165786743 0.33502501249313354
          0.20946699380874634 -0.9285590052604675 0.3064340054988861 0.11269800364971161 -0.993569016456604 -0.010937999933958054
          0.4215889871120453 -0.8881480097770691 -0.18291200697422028 0.5041880011558533 -0.8622819781303406 0.0475739985704422
          0.2804439961910248 -0.9580820202827454 -0.05856399983167648 0.22410599887371063 -0.6450570225715637 -0.7305330038070679
          0.6075810194015503 -0.7682099938392639 -0.20173799991607666 0.5020260214805603 -0.7519059777259827 -0.4273259937763214
          0.4457150101661682 -0.6354320049285889 -0.6305270195007324 0.2855350077152252 -0.5055549740791321 -0.8141769766807556
          0.6097249984741211 -0.4227440059185028 -0.6704649925231934 0.6163060069084167 -0.26274800300598145 -0.7423819899559021
          0.17748799920082092 0.2573089897632599 -0.9498900175094604 0.42496898770332336 -0.19245800375938416 -0.8845120072364807
          0.4934679865837097 -0.11063399910926819 -0.8626989722251892 0.6394720077514648 0.17056599259376526 -0.74965500831604
          0.4316740036010742 0.4574750065803528 -0.7774159908294678 0.5601469874382019 0.3401159942150116 -0.7553520202636719
          0.642274022102356 -0.019664999097585678 -0.7662230134010315 0.21359600126743317 0.398483008146286 -0.8919569849967957
          0.42274001240730286 0.5117549896240234 -0.7479289770126343 0.6026480197906494 0.3345550000667572 -0.7244920134544373
          0.5416020154953003 0.1941079944372177 -0.8179180026054382 0.5939339995384216 0.13804499804973602 -0.7925819754600525
          0.5063920021057129 0.08230900019407272 -0.8583660125732422 0.5364450216293335 0.09709099680185318 -0.8383319973945618
          0.5381190180778503 -0.7781400084495544 0.3239229917526245 0.5372880101203918 -0.706650972366333 0.46039798855781555
          0.5241090059280396 -0.6989120244979858 0.48665401339530945 0.45694500207901 -0.875262975692749 0.15848299860954285
          0.38178500533103943 -0.9226239919662476 -0.05482599884271622 0.259335994720459 -0.9070339798927307 0.331714004278183
          0.5889449715614319 -0.7385330200195312 0.32819700241088867 0.365323007106781 -0.8944969773292542 -0.25770899653434753
          0.11955799907445908 -0.9871209859848022 -0.10629399865865707 -0.09374900162220001 -0.9936689734458923 -0.061918001621961594
          -0.31040099263191223 -0.9427210092544556 -0.12218400090932846 0.2770079970359802 -0.949865996837616 -0.14498700201511383
          0.501151978969574 -0.8191030025482178 -0.27913498878479004 0.3941099941730499 -0.8982790112495422 -0.19435100257396698
          -0.8838359713554382 -0.4667609930038452 0.031106999143958092 -0.8507859706878662 -0.523311972618103 0.04802900180220604
          -0.6839939951896667 -0.6850640177726746 0.25067800283432007 -0.6469020247459412 -0.7434430122375488 0.16973699629306793
          -0.4695909917354584 -0.8818179965019226 0.04338400065898895 -0.597104012966156 -0.8012130260467529 0.039048999547958374
          -0.7697190046310425 -0.530318021774292 0.3553819954395294 -0.8155620098114014 -0.5070080161094666 0.2789280116558075
          -0.8709779977798462 -0.3863280117511749 0.3035610020160675 -0.718608021736145 -0.11146999895572662 0.6864230036735535
          -0.7538430094718933 -0.18030700087547302 0.6318309903144836 -0.8302389979362488 -0.3116770088672638 0.4621270000934601
          -0.7990130186080933 -0.2723129987716675 0.5361189842224121 -0.8025850057601929 -0.1182050034403801 0.5847100019454956
          -0.6395829916000366 -0.1346679925918579 0.7568339705467224 -0.7779060006141663 -0.12987199425697327 0.6148130297660828
          -0.6086450219154358 0.060770001262426376 0.7911120057106018 -0.6337599754333496 0.057541001588106155 0.7713860273361206
          -0.5489429831504822 -0.12211599946022034 0.8268920183181763 -0.7228000164031982 0.031221000477671623 0.6903520226478577
          -0.9269359707832336 -0.06854499876499176 0.3689059913158417 -0.872094988822937 -0.06102300062775612 0.4855160117149353
          -0.6655399799346924 0.11352299898862839 0.7376779913902283 -0.7226439714431763 0.043825000524520874 0.6898289918899536
          -0.9899340271949768 -0.14151699841022491 -0.0018729999428614974 -0.8057770133018494 -0.034752000123262405 0.5911980271339417
          -0.8520339727401733 -0.02121799997985363 0.5230569839477539 -0.9020599722862244 -0.036302000284194946 0.43008100986480713
          -0.8126189708709717 0.005555000156164169 0.582768976688385 -0.9914199709892273 -0.12091299891471863 0.049665000289678574
          -0.9736279845237732 -0.07287000119686127 0.21619200706481934 -0.9121080040931702 -0.01931600086390972 0.409496009349823