<?xml version="1.0"?>
<VTKFile type="PolyData" version="0.1" byte_order="LittleEndian" header_type="UInt32" compressor="vtkZLibDataCompressor">
  <PolyData>
    <Piece NumberOfPoints="1616" NumberOfVerts="0" NumberOfLines="0" NumberOfStrips="0" NumberOfPolys="3228">
      <PointData Normals="Normals">
        <DataArray type="Float32" Name="Normals" NumberOfComponents="3" format="ascii" RangeMin="0.9999991921592427" RangeMax="1.0000007694949538">
          -0.3638249933719635 -0.8320009708404541 -0.4188140034675598 -0.43552300333976746 -0.6923660039901733 -0.5752819776535034
          -0.4097920060157776 -0.8322799801826477 -0.3733370006084442 -0.2899090051651001 -0.8855360150337219 -0.36301299929618835
          -0.1862429976463318 -0.7716919779777527 -0.6081159710884094 -0.27939701080322266 -0.8653309941291809 -0.41609999537467957
          -0.5485140085220337 -0.7044739723205566 -0.45038700103759766 -0.6998149752616882 -0.5634779930114746 -0.43903499841690063
          -0.3089810013771057 -0.6201440095901489 -0.721077024936676 -0.4938420057296753 -0.5651519894599915 -0.6608499884605408
          -0.1245800033211708 -0.6106259822845459 -0.7820580005645752 -0.3938339948654175 -0.7761099934577942 -0.4924919903278351
          -0.2851429879665375 -0.9135670065879822 -0.28998199105262756 -0.36819198727607727 -0.9010409712791443 -0.2292580008506775
          -0.3728390038013458 -0.9084290266036987 -0.18907299637794495 -0.1558690071105957 -0.9683110117912292 -0.1951349973678589
          -0.16337400674819946 -0.9383130073547363 -0.3047589957714081 -0.3202190101146698 -0.8892650008201599 -0.32659998536109924
          0.09714999794960022 -0.6874510049819946 -0.7197030186653137 0.03151699900627136 -0.8429700136184692 -0.5370370149612427
          -0.10089000314474106 -0.8894140124320984 -0.44582998752593994 -0.5734750032424927 -0.6731749773025513 -0.4668639898300171
          -0.6016539931297302 -0.5765720009803772 -0.5527899861335754 -0.7789790034294128 -0.548786997795105 -0.30335500836372375
          -0.7286509871482849 -0.5808799862861633 -0.3628320097923279 -0.6236900091171265 -0.6062470078468323 -0.4934319853782654
          -0.40097498893737793 -0.5609059929847717 -0.7242950201034546 -0.06999900192022324 -0.5052719712257385 -0.8601160049438477
          0.13958700001239777 -0.5572479963302612 -0.8185290098190308 0.0634320005774498 -0.4193980097770691 -0.9055839776992798
          -0.13061800599098206 -0.7315899729728699 -0.6691150069236755 -0.24184800684452057 -0.8261529803276062 -0.5089010000228882
          -0.25655999779701233 -0.6901029944419861 -0.676708996295929 -0.44252899289131165 -0.6440520286560059 -0.6239920258522034
          -0.2981730103492737 -0.9527239799499512 -0.058396000415086746 -0.18182599544525146 -0.829131007194519 -0.528659999370575
          -0.2684290111064911 -0.8636549711227417 -0.42666900157928467 -0.12078499794006348 -0.9560239911079407 -0.2672629952430725
          -0.15817099809646606 -0.9856290221214294 -0.0593079999089241 -0.1536410003900528 -0.9849560260772705 -0.07909200340509415
          -0.13032099604606628 -0.9831820130348206 0.1279429942369461 -0.09342499822378159 -0.9831029772758484 -0.15741799771785736
          -0.06569500267505646 -0.9206420183181763 -0.3848409950733185 -0.29873400926589966 -0.9115309715270996 -0.28261199593544006
          0.10010900348424911 -0.9897969961166382 -0.10139399766921997 -0.06665699928998947 -0.9917060136795044 -0.10989200323820114
          0.20274299383163452 -0.7755939960479736 -0.5977879762649536 0.03066599927842617 -0.7332360148429871 -0.6792830228805542
          0.10335700213909149 -0.8052250146865845 -0.5838919878005981 0.19750800728797913 -0.8187410235404968 -0.5391219854354858
          -0.5996540188789368 -0.613315999507904 -0.5140609741210938 -0.5225319862365723 -0.5648319721221924 -0.6386889815330505
          -0.6549310088157654 -0.5381479859352112 -0.5305299758911133 -0.6924219727516174 -0.5519800186157227 -0.4646179974079132
          -0.2902750074863434 -0.4961639940738678 -0.8182680010795593 -0.10945200175046921 -0.42642900347709656 -0.8978739976882935
          -0.01860399916768074 -0.4301359951496124 -0.902571976184845 -0.014093000441789627 -0.44585099816322327 -0.8949959874153137
          -0.051555000245571136 -0.3943910002708435 -0.9174960255622864 0.12504400312900543 -0.5401970148086548 -0.8321970105171204
          0.03215299919247627 -0.43713098764419556 -0.8988230228424072 -0.07884600013494492 -0.5768870115280151 -0.8130099773406982
          -0.059053000062704086 -0.5004209876060486 -0.8637660145759583 0.04533800110220909 -0.7889050245285034 -0.612841010093689
          0.017153000459074974 -0.5641189813613892 -0.8255149722099304 0.23156000673770905 -0.6309660077095032 -0.7404469847679138
          -0.3470290005207062 -0.5724409818649292 -0.7428879737854004 -0.14852899312973022 -0.4898099899291992 -0.8590840101242065
          -0.4040890038013458 -0.5500969886779785 -0.7308250069618225 -0.21153900027275085 -0.9730439782142639 0.09185100346803665
          0.17335300147533417 -0.7565950155258179 -0.630486011505127 0.05804700031876564 -0.7820129990577698 -0.6205539703369141
          -0.09737499803304672 -0.8264999985694885 -0.5544509887695312 0.06757199764251709 -0.8767880201339722 -0.4761059880256653
          0.24484199285507202 -0.9192559719085693 -0.3082529902458191 0.07476799935102463 -0.9729380011558533 -0.21863700449466705
          -0.07463700324296951 -0.9961550235748291 -0.045885998755693436 0.042110998183488846 -0.9985700249671936 0.03294000029563904
          0.09283299744129181 -0.9903439879417419 -0.10296499729156494 -0.09204000234603882 -0.917497992515564 0.3869450092315674
          0.043368998914957047 -0.871658980846405 0.48819100856781006 0.026159999892115593 -0.9422850012779236 0.3337880074977875
          -0.018939999863505363 -0.989238977432251 0.14508000016212463 0.2521530091762543 -0.8892149925231934 -0.381727010011673
          0.053592000156641006 -0.9798110127449036 0.1926109939813614 0.28196701407432556 -0.9407479763031006 0.18838000297546387
          0.33029499650001526 -0.9399909973144531 -0.08557000011205673 -0.2750929892063141 -0.8854119777679443 -0.37465900182724
          0.06566400080919266 -0.7237200140953064 -0.6869630217552185 -0.1745920032262802 -0.8562269806861877 -0.48620301485061646
          -0.17607299983501434 -0.8352569937705994 -0.5209069848060608 0.296314001083374 -0.8191750049591064 -0.4910709857940674
          -0.1345829963684082 -0.9466490149497986 -0.2928209900856018 -0.2567960023880005 -0.9031559824943542 -0.3440439999103546
          0.13182400166988373 -0.9089109897613525 -0.39560601115226746 0.2724960148334503 -0.8881120085716248 -0.3701399862766266
          -0.4944550096988678 -0.5487430095672607 -0.6740880012512207 -0.3227970004081726 -0.4664210081100464 -0.8235610127449036
          -0.4252009987831116 -0.4038180112838745 -0.8100219964981079 -0.5457829833030701 -0.4683670103549957 -0.6948050260543823
          -0.7045159935951233 -0.5430499911308289 -0.45689600706100464 -0.7434719800949097 -0.5302609801292419 -0.40751999616622925
          -0.5401970148086548 -0.6149529814720154 -0.5744739770889282 -0.543175995349884 -0.534820020198822 -0.6472460031509399
          -0.319366991519928 -0.46076500415802 -0.8280709981918335 -0.15490299463272095 -0.2759630084037781 -0.9486039876937866
          -0.2542949914932251 -0.5084369778633118 -0.8226940035820007 -0.17434099316596985 -0.5867350101470947 -0.790789008140564
          -0.08643300086259842 -0.36702701449394226 -0.9261860251426697 -0.23137600719928741 -0.4818440079689026 -0.8451579809188843
          0.07944100350141525 -0.6037449836730957 -0.7932090163230896 -0.1595270037651062 -0.7652639746665955 -0.6236370205879211
          -0.39581799507141113 -0.6975970268249512 -0.59723299741745 -0.3823150098323822 -0.7162359952926636 -0.5838159918785095
          0.36195701360702515 -0.6349380016326904 -0.6825249791145325 0.0031079999171197414 -0.3948180079460144 -0.918753981590271
          0.27733901143074036 -0.4712910056114197 -0.8372390270233154 0.5072219967842102 -0.46595799922943115 -0.7249889969825745
          -0.28269800543785095 -0.48527100682258606 -0.8274019956588745 -0.10126999765634537 -0.9660090208053589 0.2378460019826889
          0.4752349853515625 -0.6046900153160095 -0.6391410231590271 0.3834820091724396 -0.6783490180969238 -0.6267250180244446
          0.25174200534820557 -0.7614619731903076 -0.5973280072212219 0.47909998893737793 -0.7337319850921631 -0.48176801204681396
          0.6281729936599731 -0.730239987373352 -0.26860499382019043 0.43951600790023804 -0.8704119920730591 -0.22182999551296234
          0.444705992937088 -0.8457379937171936 -0.2948949933052063 0.2776699960231781 -0.9606680274009705 0.004170000087469816
          0.5616269707679749 -0.8260570168495178 0.04696499928832054 0.1909479945898056 -0.9475749731063843 0.2562029957771301
          0.46331000328063965 -0.8747760057449341 0.14181600511074066 0.4656110107898712 -0.8753259778022766 -0.13042600452899933
          -0.009031999856233597 -0.8793619871139526 0.47606799006462097 0.150627002120018 -0.7350890040397644 0.6610260009765625
          0.25803500413894653 -0.7965409755706787 0.5467550158500671 0.19695499539375305 -0.7114959955215454 0.6745229959487915
          0.30334898829460144 -0.8538439869880676 0.4230000078678131 0.17313000559806824 -0.9565250277519226 0.234702005982399
          0.14803799986839294 -0.9806879758834839 0.12781399488449097 0.06886599957942963 -0.9944220185279846 -0.07989200204610825
          -0.39320701360702515 -0.9117760062217712 -0.118538998067379 -0.3928380012512207 -0.8769209980964661 -0.2769260108470917
          -0.4674359858036041 -0.8833410143852234 0.034807998687028885 -0.08801600337028503 -0.8244979977607727 -0.5589780211448669
          -0.30227598547935486 -0.8885650038719177 -0.34508100152015686 -0.4988439977169037 -0.8625829815864563 -0.08429700136184692
          0.0858440026640892 -0.9562659859657288 -0.2796170115470886 -0.28070199489593506 -0.9448519945144653 -0.16870200634002686
          -0.11053600162267685 -0.9822559952735901 -0.15150600671768188 -0.3126789927482605 -0.9498590230941772 -0.0007450000266544521
          -0.10117100179195404 -0.29131001234054565 -0.9512640237808228 -0.02780199982225895 -0.19303099811077118 -0.9807990193367004
          -0.22724300622940063 -0.264288991689682 -0.9372900128364563 -0.20692899823188782 -0.18116900324821472 -0.9614359736442566
          -0.36794400215148926 -0.2822990119457245 -0.8859599828720093 -0.5546410083770752 -0.5702109932899475 -0.6059979796409607
          -0.5005919933319092 -0.3444870114326477 -0.7941889762878418 0.3565619885921478 -0.7499229907989502 -0.5572069883346558
          0.4178589880466461 -0.7031620144844055 -0.5752890110015869 -0.635125994682312 -0.554053008556366 -0.5381820201873779
          -0.40806499123573303 -0.5094050168991089 -0.7576209902763367 -0.6077579855918884 -0.5645769834518433 -0.5584650039672852
          -0.18662899732589722 -0.31595900654792786 -0.9302359819412231 0.008453000336885452 -0.21329399943351746 -0.976951003074646
          -0.4940190017223358 -0.6411709785461426 -0.5872349739074707 -0.40150099992752075 -0.6671739816665649 -0.6274359822273254
          -0.22519400715827942 -0.5322650074958801 -0.8160769939422607 -0.29391899704933167 -0.39750000834465027 -0.8692560195922852
          -0.46815699338912964 -0.8079239726066589 -0.3578929901123047 -0.5223950147628784 -0.7634009718894958 -0.37989699840545654
          -0.6113439798355103 -0.7626399993896484 -0.21127599477767944 -0.577239990234375 -0.7233719825744629 -0.37884899973869324
          0.6085389852523804 -0.4686580002307892 -0.6403430104255676 0.27855199575424194 -0.2737340033054352 -0.9205859899520874
          0.30771300196647644 -0.09005899727344513 -0.947206974029541 0.1567859947681427 -0.1678529977798462 -0.9732639789581299
          -0.16758599877357483 -0.38966599106788635 -0.9055799841880798 -0.041450001299381256 -0.2998650074005127 -0.9530810117721558
          0.5467510223388672 -0.2500799894332886 -0.7990760207176208 0.7526490092277527 -0.2784459888935089 -0.5966470241546631
          0.15059100091457367 -0.9400709867477417 0.3059230148792267 0.678413987159729 -0.4817250072956085 -0.5547040104866028
          0.6043959856033325 -0.591385006904602 -0.5338249802589417 0.7625460028648376 -0.5127469897270203 -0.39447900652885437
          0.8640609979629517 -0.4543420076370239 -0.216729998588562 0.7316340208053589 -0.6511430144309998 -0.20180299878120422
          0.7179780006408691 -0.6393010020256042 -0.2753239870071411 0.7732300162315369 -0.6341149806976318 -0.00356599991209805
          0.791143000125885 -0.6094800233840942 0.0512549988925457 0.8269389867782593 -0.5509139895439148 0.11254200339317322
          0.6326069831848145 -0.7289230227470398 0.2616870105266571 0.25480398535728455 -0.8419439792633057 0.47560998797416687
          0.357697993516922 -0.6877639889717102 0.6316900253295898 0.5192310214042664 -0.5412970185279846 0.6613600254058838
          0.39620399475097656 -0.6024270057678223 0.6928960084915161 0.2244649976491928 -0.6677629947662354 0.7097240090370178
          0.20585300028324127 -0.7655230164527893 0.6095889806747437 0.24107800424098969 -0.6998800039291382 0.6723459959030151
          0.2522040009498596 -0.7703160047531128 0.5856680274009705 0.13833099603652954 -0.7612339854240417 0.6335510015487671
          -0.00356599991209805 -0.9321200251579285 0.3621320128440857 0.2616420090198517 -0.7429410219192505 0.6161019802093506
          0.08160799741744995 -0.8201450109481812 0.5663049817085266 -0.12866400182247162 -0.9349660277366638 0.33058100938796997
          -0.20231999456882477 -0.9401869773864746 0.27406999468803406 -0.16818100214004517 -0.9813389778137207 0.09322000294923782
          -0.20730699598789215 -0.9781339764595032 -0.016644999384880066 -0.5371699929237366 -0.8433859944343567 -0.012165999971330166
          -0.38018399477005005 -0.9112070202827454 0.1586270034313202 -0.48736900091171265 -0.8311570286750793 0.26767298579216003
          -0.562915027141571 -0.7968320250511169 0.21951299905776978 -0.5106719732284546 -0.8420490026473999 -0.17368899285793304
          -0.6294140219688416 -0.7678070068359375 0.11962699890136719 -0.634119987487793 -0.7718420028686523 -0.046383000910282135
          0.045756999403238297 -0.1274079978466034 -0.9907940030097961 0.12294899672269821 -0.05822300165891647 -0.9907039999961853
          -0.06315000355243683 -0.10890600085258484 -0.9920439720153809 0.12669600546360016 -0.06046900153160095 -0.9900969862937927
          -0.3155960142612457 -0.12447500228881836 -0.9406939744949341 -0.19814899563789368 -0.03166100010275841 -0.9796609878540039
          -0.6500260233879089 -0.40013399720191956 -0.646032989025116 -0.7237460017204285 -0.4967010021209717 -0.4790399968624115
          0.747281014919281 -0.5595719814300537 -0.35840100049972534 -0.5016210079193115 -0.2266869992017746 -0.8348590135574341
          -0.5817350149154663 -0.5989670157432556 -0.5502939820289612 -0.46365898847579956 -0.5033869743347168 -0.7291240096092224
          -0.2406959980726242 -0.41305699944496155 -0.8783220052719116 -0.6038140058517456 -0.4098460078239441 -0.6836919784545898
          -0.1516910046339035 -0.27083200216293335 -0.9506000280380249 -0.3024210035800934 -0.2359600067138672 -0.9235069751739502
          0.5896859765052795 -0.1674180030822754 -0.790090024471283 0.618287980556488 -0.21716199815273285 -0.7553550004959106
          -0.6205819845199585 -0.7466409802436829 -0.2395939975976944 -0.4549660086631775 -0.5986449718475342 -0.6592649817466736
          -0.6518449783325195 -0.7192249894142151 -0.24044600129127502 -0.5755169987678528 -0.6401000022888184 -0.5089730024337769
          -0.5951979756355286 -0.5499449968338013 -0.5859180092811584 -0.4667310118675232 -0.36945000290870667 -0.803534984588623
          -0.6048539876937866 -0.784919023513794 -0.13436199724674225 0.45815199613571167 -0.0397690013051033 -0.8879839777946472
          0.4542900025844574 0.03286400064826012 -0.8902469873428345 0.2769460082054138 -0.01145199965685606 -0.9608169794082642
          0.728268027305603 -0.07782000303268433 -0.6808599829673767 0.5843070149421692 0.016295000910758972 -0.811369001865387
          0.859404981136322 -0.24109399318695068 -0.45088499784469604 0.885890007019043 -0.10011500120162964 -0.4529629945755005
          0.8845239877700806 -0.017667999491095543 -0.46615999937057495 0.5139070153236389 -0.7876790165901184 0.3397969901561737
          0.8064259886741638 -0.40476301312446594 -0.43109598755836487 0.9163089990615845 -0.29805201292037964 -0.26747599244117737
          0.9638040065765381 -0.18861499428749084 -0.18843300640583038 0.9077230095863342 -0.3789910078048706 -0.18001499772071838
          0.9730690121650696 -0.23018300533294678 0.012377000413835049 0.9051439762115479 -0.419981986284256 0.06580299884080887
          0.9727029800415039 -0.18922899663448334 0.13431699573993683 0.9147980213165283 -0.3541409969329834 0.19423699378967285
          0.8430089950561523 -0.46065598726272583 0.2777259945869446 0.6522369980812073 -0.5849819779396057 0.4820620119571686
          0.7280669808387756 -0.4004639983177185 0.5563700199127197 0.777953028678894 -0.3187609910964966 0.5414620041847229
          0.7445330023765564 -0.4574739933013916 0.4861980080604553 0.5264350175857544 -0.6376190185546875 0.5624129772186279
          0.2317029982805252 -0.7761849761009216 0.5863879919052124 0.004135999828577042 -0.7663769721984863 0.6423779726028442
          0.1718440055847168 -0.8587350249290466 0.4827460050582886 -0.00021800000104121864 -0.7073310017585754 0.7068819999694824
          0.1946830004453659 -0.696412980556488 0.6907299757003784 0.06318999826908112 -0.7015060186386108 0.7098559737205505
          0.1774750053882599 -0.732088029384613 0.6576849818229675 0.25214698910713196 -0.7940800189971924 0.5530449748039246
          -0.33998700976371765 -0.8723350167274475 0.35133999586105347 -0.23541800677776337 -0.8621140122413635 0.4487070143222809
          -0.28018200397491455 -0.8156020045280457 0.5062519907951355 -0.47339698672294617 -0.8024539947509766 0.3632670044898987
          -0.6383349895477295 -0.723514974117279 0.26278001070022583 -0.5539640188217163 -0.7075269818305969 0.4387820065021515
          -0.515828013420105 -0.7506440281867981 0.41286298632621765 -0.6720749735832214 -0.7395240068435669 -0.03766699880361557
          -0.7266380190849304 -0.6870030164718628 0.004854000173509121 0.25858598947525024 0.04886699840426445 -0.9647510051727295
          0.08508700132369995 0.003942999988794327 -0.996366024017334 -0.44022199511528015 -0.10165999829769135 -0.8921149969100952
          -0.24456900358200073 0.0680909976363182 -0.9672380089759827 -0.061354998499155045 0.09677200019359589 -0.9934139847755432
          -0.43218499422073364 -0.4289950132369995 -0.7932080030441284 -0.21931999921798706 -0.3345719873905182 -0.9164940118789673
          -0.5286350250244141 -0.3366389870643616 -0.779242992401123 -0.23773600161075592 -0.2413560003042221 -0.9408659934997559
          -0.3462580144405365 -0.21886999905109406 -0.9122509956359863 -0.3845199942588806 -0.26458001136779785 -0.8843880295753479
          -0.3953559994697571 -0.35165199637413025 -0.8485490083694458 0.7749490141868591 -0.1820259988307953 -0.6052449941635132
          -0.08863499760627747 -0.2948009967803955 -0.9514390230178833 -0.6740279793739319 -0.6321979761123657 -0.3821139931678772
          -0.7639430165290833 -0.6174479722976685 -0.18748100101947784 -0.7275779843330383 -0.6040440201759338 -0.32521000504493713
          -0.7156280279159546 -0.5165420174598694 -0.4701710045337677 -0.6185010075569153 -0.4044190049171448 -0.6737229824066162
          0.5686110258102417 0.024073999375104904 -0.8222540020942688 0.4571090042591095 -0.00026699999580159783 -0.8894109725952148
          0.7286159992218018 0.03195599839091301 -0.6841760277748108 0.9754260182380676 -0.033392999321222305 -0.21778100728988647
          0.9544709920883179 -0.1397700011730194 -0.2635340094566345 0.9298530220985413 -0.21991300582885742 -0.29497799277305603
          0.955627977848053 0.04066900163888931 -0.29175499081611633 0.8677880167961121 0.12931500375270844 -0.47981399297714233
          0.9609090089797974 0.15666599571704865 -0.22827500104904175 0.9881200194358826 -0.04790399968624115 -0.14602699875831604
          0.9990659952163696 -0.03329300135374069 -0.02755099907517433 0.9992759823799133 0.013507000170648098 0.035558998584747314
          0.9900739789009094 -0.12651899456977844 -0.061211999505758286 0.986024022102356 0.04767800122499466 0.15963299572467804
          0.9700940251350403 -0.03734000027179718 0.23984099924564362 0.8912870287895203 -0.24331900477409363 0.3826259970664978
          0.9221940040588379 -0.09517300128936768 0.3748350143432617 0.8212760090827942 -0.251008003950119 0.512349009513855
          0.9204339981079102 -0.1276939958333969 0.3694530129432678 0.8905940055847168 -0.19112400710582733 0.41269099712371826
          0.933568000793457 -0.24758799374103546 0.25913500785827637 0.9111379981040955 -0.32836300134658813 0.24900899827480316
          0.7119889855384827 -0.5118280053138733 0.4807319939136505 0.49930399656295776 -0.6815289855003357 0.5349879860877991
          0.05075199902057648 -0.7045609951019287 0.7078260183334351 -0.25394201278686523 -0.7567489743232727 0.6023659706115723
          -0.3918040096759796 -0.7814630270004272 0.48559799790382385 0.8282740116119385 -0.3845809996128082 0.40750399231910706
          0.05536000058054924 -0.6405580043792725 0.7659119963645935 0.8283489942550659 -0.3675200045108795 0.42280900478363037
          -0.07476600259542465 -0.6833930015563965 0.7262120246887207 0.6847820281982422 -0.5011990070343018 0.5290300250053406
          0.397022008895874 -0.6673600077629089 0.6300830245018005 0.1485850065946579 -0.685912013053894 0.712352991104126
          0.5280179977416992 -0.5936790108680725 0.6072409749031067 -0.7311660051345825 -0.6558650135993958 0.18771900236606598
          -0.5826150178909302 -0.6420750021934509 0.49829599261283875 -0.6492570042610168 -0.6657170057296753 0.36781200766563416
          -0.7219470143318176 -0.608726978302002 0.3290039896965027 -0.4320780038833618 -0.6660580039024353 0.6080089807510376
          -0.5167989730834961 -0.6106659770011902 0.6000049710273743 -0.43755200505256653 -0.7284650206565857 0.5271499752998352
          -0.7906399965286255 -0.6023809909820557 -0.10965900123119354 -0.7878440022468567 -0.5947549939155579 0.15990400314331055
          0.6573010087013245 0.08743699640035629 -0.7485380172729492 0.19011299312114716 0.19084499776363373 -0.9630339741706848
          0.16387100517749786 0.15462900698184967 -0.9742879867553711 0.4969150125980377 0.12680299580097198 -0.8584849834442139
          0.17397600412368774 0.13258300721645355 -0.9757840037345886 -0.3590730130672455 0.04246800020337105 -0.9323430061340332
          -0.4583820104598999 -0.22000999748706818 -0.8610929846763611 -0.08698499947786331 0.24047400057315826 -0.9667500257492065
          -0.19839100539684296 0.17817500233650208 -0.9637920260429382 -0.25062501430511475 0.20784200727939606 -0.9455100297927856
          0.08403100073337555 0.24367499351501465 -0.9662100076675415 -0.5664510130882263 -0.31842899322509766 -0.7600899934768677
          -0.31652000546455383 -0.08121900260448456 -0.9451019763946533 -0.5015590190887451 -0.04798299819231033 -0.8637920022010803
          -0.4567910134792328 -0.3376550078392029 -0.8230019807815552 -0.6558759808540344 -0.4531719982624054 -0.6037070155143738
          -0.38067498803138733 -0.2598629891872406 -0.887444019317627 -0.7770450115203857 -0.555761992931366 -0.2955160140991211
          0.7285839915275574 0.15501199662685394 -0.6671860218048096 0.6718299984931946 0.07241299748420715 -0.7371580004692078
          0.9860259890556335 0.1402599960565567 -0.08988600224256516 0.9853619933128357 0.16742800176143646 -0.03209500014781952
          0.8815460205078125 0.18922999501228333 -0.4325140118598938 0.9481920003890991 0.17198100686073303 -0.2671230137348175
          0.989425003528595 0.13123799860477448 0.0617620013654232 0.9830530285835266 0.13084599375724792 0.12839600443840027
          0.968146026134491 0.15299299359321594 0.1982090026140213 0.9679210186004639 0.13507699966430664 0.21185800433158875
          0.9564120173454285 0.0018119999440386891 0.2920140027999878 0.9792259931564331 0.10514499992132187 0.17337900400161743
          0.9768589735031128 0.07173199951648712 0.20149600505828857 0.9688159823417664 -0.019742000848054886 0.24699099361896515
          0.9570000171661377 -0.24087999761104584 0.16164200007915497 0.980800986289978 -0.08950799703598022 0.1732580065727234
          0.9338390231132507 -0.19666199386119843 0.2987790107727051 0.897221028804779 -0.25418999791145325 0.3610849976539612
          0.9180999994277954 -0.1633100062608719 0.3611389994621277 0.6939529776573181 -0.42861801385879517 0.5785459876060486
          -0.0904809981584549 -0.6520079970359802 0.7527940273284912 -0.021268000826239586 -0.5484920144081116 0.8358849883079529
          0.28789499402046204 -0.5741699934005737 0.7664499878883362 0.0204709991812706 -0.6108769774436951 0.7914609909057617
          0.03572100028395653 -0.6793619990348816 0.732932984828949 -0.13241499662399292 -0.6015759706497192 0.7877650260925293
          -0.22667700052261353 -0.6576970219612122 0.7183679938316345 0.7121750116348267 -0.43615099787712097 0.5500720143318176
          0.46244099736213684 -0.6043580174446106 0.6487680077552795 0.35340601205825806 -0.5626819729804993 0.7473239898681641
          -0.6162459850311279 -0.6093209981918335 0.4989689886569977 -0.5345510244369507 -0.5794810056686401 0.6151890158653259
          -0.49039900302886963 -0.5487059950828552 0.6770750284194946 -0.5631870031356812 -0.5225200057029724 0.6401510238647461
          -0.6224960088729858 -0.5540800094604492 0.5527160167694092 -0.7327250242233276 -0.5642719864845276 0.38040998578071594
          -0.3164669871330261 -0.5479090213775635 0.7743669748306274 -0.8197479844093323 -0.5577390193939209 -0.13015399873256683
          -0.740090012550354 -0.5411580204963684 0.3992680013179779 -0.7689840197563171 -0.5286359786987305 0.3594549894332886
          -0.8273760080337524 -0.5574529767036438 0.06852000206708908 -0.8210489749908447 -0.5189539790153503 0.23783600330352783
          0.8193910121917725 0.12113499641418457 -0.5602909922599792 0.23205800354480743 0.3169650137424469 -0.9196100234985352
          0.12036500126123428 0.27661100029945374 -0.9534140229225159 -0.05165399983525276 0.25438499450683594 -0.9657229781150818
          0.3406769931316376 0.19710199534893036 -0.9192879796028137 0.13831399381160736 0.14955900609493256 -0.9790310263633728
          0.12154500186443329 0.15848100185394287 -0.979852020740509 0.673803985118866 0.1833609938621521 -0.7157989740371704
          -0.32141101360321045 0.1481660008430481 -0.935276985168457 -0.34657201170921326 0.013821999542415142 -0.9379220008850098
          -0.5775259733200073 -0.40995100140571594 -0.7059779763221741 -0.48585399985313416 -0.19517600536346436 -0.8519690036773682
          0.09336800128221512 0.4505850076675415 -0.8878369927406311 -0.06969500333070755 0.5132520198822021 -0.8554030060768127
          -0.18916800618171692 0.318356990814209 -0.9289050102233887 -0.08163399994373322 0.4692550003528595 -0.8792809844017029
          -0.1294260025024414 0.3444420099258423 -0.929843008518219 -0.1628430038690567 0.31626999378204346 -0.9345880150794983
          -0.10712199658155441 0.3539409935474396 -0.92911297082901 -0.034543998539447784 0.46696001291275024 -0.8836039900779724
          -0.5920789837837219 -0.11883500218391418 -0.7970700263977051 -0.5927320122718811 -0.4561780095100403 -0.6637549996376038
          0.3238860070705414 -0.12229599803686142 -0.9381589889526367 -0.3963389992713928 0.005365000106394291 -0.918088972568512
          -0.26816698908805847 0.041519999504089355 -0.9624770283699036 -0.35685598850250244 0.07285100221633911 -0.931315004825592
          -0.4772849977016449 -0.30777400732040405 -0.8230879902839661 -0.24824999272823334 -0.2747499942779541 -0.9289159774780273
          -0.5873810052871704 -0.4283440113067627 -0.6866620182991028 -0.7546989917755127 -0.4980590045452118 -0.42704400420188904
          0.9731389880180359 0.1844090074300766 0.13781699538230896 0.9876180291175842 0.09521500021219254 0.12467999756336212
          0.9829440116882324 0.16697899997234344 -0.07706300169229507 0.9856399893760681 0.16683800518512726 -0.026068000122904778
          0.9990270137786865 0.03356900066137314 -0.028589999303221703 0.9687420129776001 0.15222500264644623 -0.1958719938993454
          0.9959660172462463 0.042406000196933746 0.07908199727535248 0.9964140057563782 0.002397000091150403 0.08458200097084045
          0.9894580245018005 -0.04337399825453758 0.13817299902439117 0.9291279911994934 -0.11037000268697739 0.35290300846099854
          0.8470759987831116 -0.25892698764801025 0.46413299441337585 0.8629819750785828 -0.21173200011253357 0.45872798562049866
          0.9255849719047546 -0.11702000349760056 0.35999900102615356 -0.31370899081230164 -0.4339810013771057 0.844539999961853
          -0.17909599840641022 -0.46875399351119995 0.864982008934021 -0.32173100113868713 -0.49860501289367676 0.8049119710922241
          0.14103400707244873 -0.6308299899101257 0.7629960179328918 -0.0962970033288002 -0.6964930295944214 0.7110720276832581
          -0.2906990051269531 -0.6264809966087341 0.7231979966163635 -0.4236310124397278 -0.4599429965019226 0.7803769707679749
          0.5953770279884338 -0.49233201146125793 0.6349300146102905 0.7922499775886536 -0.27672499418258667 0.5438420176506042