<?xml version="1.0"?>
<VTKFile type="PolyData" version="0.1" byte_order="LittleEndian" header_type="UInt32" compressor="vtkZLibDataCompressor">
  <PolyData>
    <Piece NumberOfPoints="2408" NumberOfVerts="0" NumberOfLines="0" NumberOfStrips="0" NumberOfPolys="4812">
      <PointData Normals="Normals">
        <DataArray type="Float32" Name="Normals" NumberOfComponents="3" format="ascii" RangeMin="0.9999992270150744" RangeMax="1.0000007481341617">
          -0.9561359882354736 0.2818810045719147 0.07966800034046173 -0.965162992477417 0.23362499475479126 0.11781500279903412
          -0.934503972530365 0.304531991481781 0.18429100513458252 -0.9364709854125977 0.22019900381565094 0.2730099856853485
          -0.9644569754600525 0.2621009945869446 0.033548999577760696 -0.9571099877357483 0.27708199620246887 0.08465199917554855
          -0.9028329849243164 0.34751901030540466 -0.2532249987125397 -0.9102669954299927 0.3487670123577118 -0.22310499846935272
          -0.9482219815254211 0.3150250017642975 0.040417999029159546 -0.909974992275238 0.3550789952278137 -0.2141599953174591
          -0.9141989946365356 0.4041750133037567 0.02970300056040287 -0.9802899956703186 0.18904699385166168 0.05737899988889694
          -0.996757984161377 0.010382000356912613 0.07978499680757523 -0.9907519817352295 0.10210700333118439 0.08935800194740295
          -0.9349409937858582 0.3448449969291687 0.08346500247716904 -0.9467089772224426 0.229311004281044 0.2261819988489151
          -0.9471889734268188 0.23898600041866302 0.21382099390029907 -0.9931480288505554 0.11272499710321426 0.030827000737190247
          -0.8958969712257385 0.3328869938850403 -0.2942030131816864 -0.9519460201263428 0.25651299953460693 -0.16733400523662567
          -0.9306290149688721 0.36071300506591797 -0.06176900118589401 -0.9548630118370056 0.2970469892024994 -0.0004180000105407089
          -0.9519379734992981 0.30363601446151733 -0.04024200141429901 -0.8143290281295776 0.3866269886493683 -0.43288299441337585
          -0.7843189835548401 0.38773301243782043 -0.4842599928379059 -0.8065140247344971 0.42890000343322754 -0.40691500902175903
          -0.9866859912872314 0.15266500413417816 -0.056078001856803894 -0.9499179720878601 0.3005790114402771 -0.08548499643802643
          -0.9834409952163696 0.16297300159931183 0.0792739987373352 -0.9772359728813171 0.20928700268268585 0.03475800156593323
          -0.8819969892501831 0.46063700318336487 -0.09946800023317337 -0.9419959783554077 0.32023999094963074 0.10045100003480911
          -0.993412971496582 -0.0018759999657049775 0.11457599699497223 -0.9848600029945374 -0.06351500004529953 0.16129499673843384
          -0.9758300185203552 -0.11259099841117859 0.18729299306869507 -0.9722200036048889 0.19932299852371216 0.12271399796009064
          -0.9043470025062561 0.21712100505828857 0.3674429953098297 -0.963100016117096 0.22168299555778503 0.15262700617313385
          -0.9990540146827698 0.03673100098967552 0.02327599935233593 -0.9579399824142456 0.1786009967327118 -0.22461900115013123
          -0.9927060008049011 0.04906800016760826 -0.11012300103902817 -0.8068000078201294 0.3500620126724243 -0.47595199942588806
          -0.7190139889717102 0.39681100845336914 -0.5705789923667908 -0.8649420142173767 0.30254998803138733 -0.40042299032211304
          -0.8886010050773621 0.3559510111808777 -0.2892870008945465 -0.9436889886856079 0.32915198802948 0.03330700099468231
          -0.8992459774017334 0.356671005487442 -0.2532620131969452 -0.9483609795570374 0.31504198908805847 -0.03688399866223335
          -0.6343340277671814 0.3908819854259491 -0.6669570207595825 -0.6000040173530579 0.3964250087738037 -0.6948689818382263
          -0.5901870131492615 0.4080289900302887 -0.6965579986572266 -0.8076789975166321 0.37787601351737976 -0.4526199996471405
          -0.6633520126342773 0.32847100496292114 -0.6723620295524597 -0.9952859878540039 0.09637799859046936 0.01081900019198656
          -0.998661994934082 -0.04537900164723396 0.02479499951004982 -0.9998670220375061 0.006246999837458134 0.015079000033438206
          -0.999284029006958 -0.01740100048482418 0.03360699862241745 -0.9308930039405823 0.3337540030479431 -0.14848099648952484
          -0.9168530106544495 0.39288899302482605 -0.07083699852228165 -0.9868350028991699 0.1144929975271225 0.11423099786043167
          -0.9748200178146362 0.2059440016746521 0.08551300317049026 -0.8904709815979004 0.42055100202560425 -0.17377400398254395
          -0.9637010097503662 0.255156010389328 -0.07858400046825409 -0.998528003692627 -0.033493999391794205 0.04266799986362457
          -0.9000570178031921 0.4118030071258545 -0.14252999424934387 -0.952672004699707 0.2923850119113922 -0.08322499692440033
          -0.9749889969825745 0.21841999888420105 -0.041106998920440674 -0.9597520232200623 -0.20214100182056427 0.19497700035572052
          -0.9057070016860962 -0.27143800258636475 0.3255999982357025 -0.9685760140419006 -0.2002670019865036 0.14749400317668915
          -0.9228770136833191 -0.24246500432491302 0.29917898774147034 -0.8617339730262756 -0.3083229959011078 0.4029279947280884
          -0.9973679780960083 -0.050794001668691635 0.05173100158572197 -0.9452890157699585 0.2960189878940582 0.13711799681186676
          -0.8839150071144104 0.326324999332428 0.33497101068496704 -0.9087619781494141 0.17743200063705444 0.37771499156951904
          -0.9137129783630371 0.12292899936437607 0.38731899857521057 -0.8709020018577576 0.21938900649547577 0.43977001309394836
          -0.8447909951210022 0.22324299812316895 0.4863030016422272 -0.961679995059967 0.19345200061798096 -0.1942870020866394
          -0.984233021736145 0.14239299297332764 0.10492599755525589 -0.9999679923057556 0.002239000052213669 0.007716999854892492
          -0.998449981212616 0.035989001393318176 -0.04244399815797806 -0.9717190265655518 0.08201099932193756 -0.2214439958333969
          -0.8979700207710266 0.21921199560165405 -0.3815700113773346 -0.8260200023651123 0.33741798996925354 -0.4514870047569275
          -0.9953719973564148 -0.00855099968612194 -0.09571400284767151 -0.9797549843788147 0.05824900045990944 -0.19154000282287598
          -0.6207380294799805 0.48084399104118347 -0.6192529797554016 -0.6683729887008667 0.38302499055862427 -0.6376280188560486
          -0.737030029296875 0.3869290053844452 -0.5541409850120544 -0.4478670060634613 0.489421010017395 -0.7482529878616333
          -0.485181987285614 0.43821901082992554 -0.7566789984703064 -0.5286980271339417 0.36577799916267395 -0.7659540176391602
          -0.9072989821434021 0.3173910081386566 -0.27581098675727844 -0.9056059718132019 0.17240199446678162 -0.38749998807907104
          -0.34223100543022156 0.29875099658966064 -0.8908569812774658 -0.4356290102005005 0.26699298620224 -0.8596169948577881
          -0.3901819884777069 0.39802300930023193 -0.8302620053291321 -0.3518109917640686 0.4471519887447357 -0.8223649859428406
          -0.3089349865913391 0.5584279894828796 -0.7698820233345032 -0.7486680150032043 0.17543800175189972 -0.6393110156059265
          -0.42412999272346497 0.19974300265312195 -0.8832989931106567 -0.9890769720077515 -0.04792499914765358 0.13938799500465393
          -0.9945470094680786 -0.05637500062584877 0.08773399889469147 -0.9708349704742432 -0.23326000571250916 0.055403001606464386
          -0.9591439962387085 -0.28151899576187134 0.02812200039625168 -0.9402009844779968 -0.3095499873161316 0.1421310007572174
          -0.9695600271224976 -0.1783290058374405 0.16778899729251862 -0.9962670207023621 -0.08282099664211273 -0.024358000606298447
          -0.9853349924087524 -0.17000900208950043 0.014538000337779522 -0.9421979784965515 -0.3343130052089691 0.022326000034809113
          -0.9791889786720276 -0.1978510022163391 0.04521999880671501 -0.8148720264434814 0.5057920217514038 -0.2831229865550995
          -0.8579419851303101 0.3316049873828888 -0.3923949897289276 -0.9625759720802307 0.22355400025844574 -0.15320399403572083
          -0.8374750018119812 0.5406510233879089 -0.07957600057125092 -0.9753819704055786 -0.007050999905914068 0.22041000425815582
          -0.940060019493103 0.016295000910758972 0.3406189978122711 -0.9182559847831726 0.140733003616333 0.37013599276542664
          -0.9024140238761902 0.2563599944114685 0.34630799293518066 -0.9211220145225525 0.3584290146827698 0.1518619954586029
          -0.9502720236778259 0.2958410084247589 -0.09727499634027481 -0.9542490243911743 -0.27395200729370117 0.11982599645853043
          -0.8634099960327148 0.48956298828125 -0.12186499685049057 -0.9401540160179138 0.33651798963546753 0.05353600159287453
          -0.9486809968948364 0.3135310113430023 0.041276998817920685 -0.8483309745788574 -0.3881939947605133 0.36005398631095886
          -0.8714789748191833 -0.4182249903678894 0.2561500072479248 -0.6953099966049194 -0.46492999792099 0.5480729937553406
          -0.7742080092430115 -0.4326710104942322 0.46195000410079956 -0.8607019782066345 -0.39709800481796265 0.31859999895095825
          -0.7973510026931763 -0.4968000054359436 0.34266701340675354 -0.9094750285148621 -0.3737350106239319 0.18214799463748932
          -0.9838169813156128 -0.1676959991455078 0.06310900300741196 -0.996973991394043 -0.07324600219726562 0.026038000360131264
          -0.7472519874572754 -0.4956589937210083 0.4426479935646057 -0.6246179938316345 -0.5483909845352173 0.5559849739074707
          -0.8951110243797302 0.41850700974464417 0.1537110060453415 -0.8725450038909912 0.3665109872817993 0.32300999760627747
          -0.901947021484375 0.3067049980163574 0.3040120005607605 -0.9625899791717529 0.2218320071697235 0.15560099482536316
          -0.9137740135192871 0.2601200044155121 0.3120169937610626 -0.9026550054550171 0.2903760075569153 0.3176409900188446
          -0.8820620179176331 0.20712199807167053 0.4231629967689514 -0.844461977481842 0.3692539930343628 0.38798999786376953
          -0.8438689708709717 0.3358280062675476 0.41845598816871643 -0.8520330190658569 0.18047599494457245 0.4913940131664276
          -0.8750550150871277 0.18268799781799316 0.44822201132774353 -0.9358500242233276 0.124379001557827 -0.32971900701522827
          -0.9719489812850952 0.11432299762964249 -0.20553700625896454 -0.9310200214385986 0.04370399937033653 -0.3623420000076294
          -0.9731940031051636 0.17503200471401215 -0.14918899536132812 -0.9996410012245178 -0.0162189994007349 0.021306000649929047
          -0.9612780213356018 0.0676880031824112 -0.2671389877796173 -0.8932200074195862 0.06538599729537964 -0.4448409974575043
          -0.788437008857727 0.263359010219574 -0.5558859705924988 -0.987591028213501 0.028480999171733856 -0.15444700419902802
          -0.9365130066871643 0.01660900004208088 -0.35023999214172363 -0.9975389838218689 -0.06863400340080261 0.014321000315248966
          -0.9688820242881775 -0.24129000306129456 0.0551999993622303 -0.9576960206031799 -0.10485000163316727 -0.2680000066757202
          -0.98574298620224 -0.12514300644397736 -0.1124730035662651 -0.47376999258995056 0.5517950057983398 -0.6863409876823425
          -0.772167980670929 0.23216299712657928 -0.5914869904518127 -0.6254569888114929 0.3812200129032135 -0.6807900071144104
          -0.32363900542259216 0.5058450102806091 -0.7996119856834412 -0.2391269952058792 0.4683679938316345 -0.8505579829216003
          -0.05355599895119667 0.4409100115299225 -0.8959519863128662 -0.2468709945678711 0.3701950013637543 -0.895550012588501
          -0.22348900139331818 0.3065730035305023 -0.9252380132675171 -0.49848800897598267 0.31762799620628357 -0.8066120147705078
          -0.5943760275840759 0.3717769980430603 -0.7130910158157349 -0.9017459750175476 -0.004131999798119068 -0.43224599957466125
          -0.8787500262260437 -0.004900999832898378 -0.47725799679756165 -0.9646070003509521 -0.016245000064373016 -0.26319101452827454
          -0.07014299929141998 0.39101698994636536 -0.9177070260047913 -0.08075299859046936 0.20103000104427338 -0.9762510061264038
          -0.06801699846982956 0.24799799919128418 -0.9663699865341187 -0.1744929999113083 0.22475899755954742 -0.9586640000343323
          -0.22928600013256073 0.4708639979362488 -0.8518890142440796 -0.1019899994134903 0.4995959997177124 -0.8602340221405029
          -0.3679159879684448 0.5462470054626465 -0.7524970173835754 -0.09568999707698822 0.5818189978599548 -0.8076689839363098
          0.19952699542045593 0.5203359723091125 -0.8303250074386597 -0.7191010117530823 0.08574000000953674 -0.6895959973335266
          -0.5067899823188782 0.1267389953136444 -0.8527020215988159 -0.27287599444389343 0.08490400016307831 -0.9582949876785278
          -0.1347620040178299 0.1402129977941513 -0.9809070229530334 -0.9243990182876587 -0.18597100675106049 0.3330189883708954
          -0.9519609808921814 -0.24512499570846558 0.18353399634361267 -0.8891479969024658 -0.33035901188850403 0.31666800379753113
          -0.9365050196647644 -0.27667000889778137 0.2154339998960495 -0.9215890169143677 -0.3842880129814148 0.0547420009970665
          -0.8671129941940308 -0.4836469888687134 0.1191679984331131 -0.8934760093688965 -0.4477269947528839 0.03523999825119972
          -0.8564280271530151 -0.5143349766731262 0.04461200162768364 -0.7922719717025757 -0.60829097032547 0.047825999557971954
          -0.77702397108078 -0.575016975402832 0.2561019957065582 -0.8658859729766846 -0.42308899760246277 0.26690199971199036
          -0.9012380242347717 -0.42761799693107605 0.07009299844503403 -0.7638279795646667 -0.6405249834060669 0.07934299856424332
          -0.6856030225753784 -0.7257919907569885 0.056345999240875244 -0.782738983631134 0.3830829858779907 -0.4904769957065582
          -0.9038689732551575 0.40343499183654785 -0.14233799278736115 -0.8531330227851868 0.30740100145339966 -0.4215080142021179
          -0.9154859781265259 -0.13708700239658356 0.3782770037651062 -0.863556981086731 -0.15569700300693512 0.4796130061149597
          -0.8444910049438477 0.03938699886202812 0.5341190099716187 -0.8125230073928833 0.17241600155830383 0.5568469762802124
          -0.8537709712982178 0.31382399797439575 0.4154379963874817 -0.8822460174560547 0.3960629999637604 0.2545120120048523
          -0.8331850171089172 0.5529770255088806 0.0042779999785125256 -0.8231440186500549 -0.5436059832572937 0.16409599781036377
          -0.947488009929657 0.3197380006313324 -0.005830999929457903 -0.8973940014839172 0.25726398825645447 -0.3584679961204529
          -0.9537690281867981 0.2819960117340088 0.10393700003623962 -0.9448429942131042 0.32637301087379456 -0.027435999363660812
          -0.6679940223693848 -0.5584959983825684 0.491798996925354 -0.7453950047492981 -0.5800849795341492 0.32846400141716003
          -0.4542439877986908 -0.6840239763259888 0.5707659721374512 -0.5854730010032654 -0.5751979947090149 0.5712860226631165
          -0.662310004234314 -0.6030229926109314 0.4446460008621216 -0.7193520069122314 -0.5989699959754944 0.3518050014972687
          -0.5339589715003967 -0.7052879929542542 0.46632298827171326 -0.8732650279998779 -0.45341700315475464 0.17838500440120697
          -0.9377390146255493 -0.3294450044631958 0.11005499958992004 -0.9774069786071777 -0.20504599809646606 0.051298998296260834
          -0.49283701181411743 -0.718861997127533 0.4902530014514923 -0.868960976600647 0.4856700003147125 0.09503500163555145
          -0.8406220078468323 0.4955329895019531 0.21863600611686707 -0.9550089836120605 0.2964940071105957 0.006982000079005957
          -0.9531499743461609 0.2989659905433655 0.046101998537778854 -0.9674980044364929 0.23234400153160095 0.09982399642467499
          -0.9633520245552063 0.15746399760246277 0.21716000139713287 -0.9228169918060303 0.11761099845170975 0.3668459951877594
          -0.9487180113792419 0.13857099413871765 0.2841329872608185 -0.8214769959449768 0.47699499130249023 0.3124929964542389
          -0.8549559712409973 0.3953920006752014 0.33573201298713684 -0.9033830165863037 0.06763800233602524 0.4234659969806671
          -0.8751009702682495 -0.0209950003772974 0.4834839999675751 -0.8658469915390015 0.2590610086917877 0.42801499366760254
          -0.8766700029373169 0.11605300009250641 0.46688398718833923 -0.9657649993896484 -0.04047499969601631 -0.2562420070171356
          -0.9855669736862183 -0.0346359983086586 -0.16570399701595306 -0.9814209938049316 0.15830999612808228 -0.10840299725532532
          -0.9682480096817017 0.21404600143432617 -0.12915299832820892 -0.8560529947280884 0.05881499871611595 -0.5135319828987122
          -0.7640889883041382 0.04394000023603439 -0.6436129808425903 -0.8980039954185486 -0.05806000158190727 -0.4361410140991211
          -0.7842559814453125 0.09955400228500366 -0.6123989820480347 -0.8858659863471985 -0.4518109858036041 0.10539600253105164
          -0.7883780002593994 -0.5910500288009644 0.17064699530601501 -0.8760020136833191 -0.4679569900035858 0.11677999794483185
          -0.9696040153503418 -0.24451200664043427 -0.009043999947607517 -0.9516100287437439 -0.279574990272522 -0.12757599353790283
          -0.9224650263786316 -0.23108500242233276 -0.30928701162338257 -0.8962730169296265 -0.18279199302196503 -0.40408098697662354
          -0.7153840065002441 0.23300999402999878 -0.658735990524292 -0.12184099853038788 0.42603498697280884 -0.896465003490448
          0.10572600364685059 0.4786800146102905 -0.8716009855270386 0.18640099465847015 0.3231410086154938 -0.9278119802474976
          0.3272480070590973 0.3946169912815094 -0.8585950136184692 -0.01881599985063076 0.32615500688552856 -0.9451289772987366
          -0.4419049918651581 0.2961379885673523 -0.8467720150947571 -0.4032270014286041 0.2762269973754883 -0.8724139928817749
          0.13030600547790527 0.2426310032606125 -0.9613270163536072 -0.1871979981660843 0.2584019899368286 -0.9477260112762451
          -0.6315619945526123 0.2328220009803772 -0.7395430207252502 -0.7689509987831116 -0.0018899999558925629 -0.6393049955368042
          -0.657634973526001 -0.06980600208044052 -0.7500960230827332 -0.8313919901847839 -0.0627250000834465 -0.5521339774131775
          -0.9843800067901611 -0.10751699656248093 -0.1394139975309372 -0.9108489751815796 -0.0912339985370636 -0.4025309979915619
          -0.7899630069732666 -0.16316300630569458 -0.5910469889640808 0.10734199732542038 0.49368399381637573 -0.8629909753799438
          0.21214300394058228 0.23742899298667908 -0.9479569792747498 0.27268800139427185 0.4129999876022339 -0.8689489960670471
          0.16135700047016144 0.14366400241851807 -0.9763829708099365 0.10366299748420715 0.15416699647903442 -0.982591986656189
          0.1114950031042099 0.4797089993953705 -0.8703150153160095 0.2223140001296997 0.4555380046367645 -0.8620110154151917
          0.3760890066623688 0.43681401014328003 -0.8171600103378296 -0.5286800265312195 0.009138000197708607 -0.8487719893455505
          -0.27768799662590027 -0.02545199915766716 -0.9603340029716492 -0.16390299797058105 -0.004623999819159508 -0.9864659905433655
          -0.04961499944329262 0.018893999978899956 -0.9985899925231934 0.051277998834848404 0.05020900070667267 -0.9974210262298584
          -0.804751992225647 -0.3613300025463104 0.4709709882736206 -0.8159170150756836 -0.4903329908847809 0.3063560128211975
          -0.886210024356842 -0.381835013628006 0.2623629868030548 -0.6953489780426025 -0.5600389838218689 0.4503839910030365
          -0.8288360238075256 -0.46494001150131226 0.3112260103225708 -0.7879599928855896 -0.608460009098053 0.0943169966340065
          -0.6197019815444946 -0.753836989402771 0.2184009999036789 -0.6445379853248596 -0.7555930018424988 0.11683599650859833
          -0.5529329776763916 -0.8279910087585449 0.09324999898672104 -0.6311489939689636 -0.7003219723701477 0.3334679901599884
          -0.5937489867210388 -0.7889419794082642 0.15821699798107147 -0.49021199345588684 -0.8710209727287292 0.03185100108385086
          -0.3617840111255646 -0.9315699934959412 -0.03590000048279762 -0.8029620051383972 0.567035973072052 -0.18363699316978455
          -0.8984119892120361 0.25523999333381653 -0.3573620021343231 -0.8645380139350891 0.4560210108757019 -0.21122899651527405
          -0.7467150092124939 -0.15307599306106567 0.6472899913787842 -0.711775004863739 -0.3820270001888275 0.589434027671814
          -0.6826410293579102 -0.03514999896287918 0.7299079895019531 -0.6912689805030823 0.11639600247144699 0.7131609916687012
          -0.7428990006446838 0.23344700038433075 0.6273790001869202 -0.7363060116767883 0.3780750036239624 0.5611709952354431
          -0.8361610174179077 0.512660026550293 0.19497300684452057 -0.7926380038261414 0.4802750051021576 0.3755820095539093
          0.968858003616333 0.24450799822807312 -0.03912600129842758 -0.7822309732437134 0.6204130053520203 0.05660099908709526
          0.7693229913711548 0.6269710063934326 -0.12267599999904633 -0.799124002456665 0.5785959959030151 0.1631779968738556
          -0.963575005531311 0.2169550061225891 -0.1563750058412552 -0.879597008228302 0.4651859998703003 -0.09956099838018417
          -0.3696509897708893 -0.6647239923477173 0.6492310166358948 -0.361642986536026 -0.8360080122947693 0.4126800000667572
          -0.299796998500824 -0.79728102684021 0.5238929986953735 -0.254487007856369 -0.788254976272583 0.5602589845657349
          -0.42263099551200867 -0.6603379845619202 0.6207559704780579 -0.3811019957065582 -0.6631069779396057 0.6442440152168274
          -0.678272008895874 -0.6591740250587463 0.32471099495887756 -0.5230839848518372 -0.6992170214653015 0.4873180091381073
          -0.7978410124778748 -0.5731260180473328 0.18701699376106262 -0.790274977684021 0.603609025478363 0.10545899718999863
          -0.7772039771080017 0.5725989937782288 0.26093098521232605 -0.9716349840164185 0.23571400344371796 -0.019063999876379967
          -0.9043189883232117 0.388619989156723 -0.1765809953212738 -0.9503129720687866 0.2338930070400238 -0.2054239958524704
          -0.9312829971313477 0.30332300066947937 -0.20175999402999878 -0.9614459872245789 0.21415899693965912 -0.17250500619411469
          -0.9749429821968079 0.08255600184202194 -0.20656800270080566 -0.9990540146827698 0.03787200152873993 0.021382000297307968
          -0.9681770205497742 -0.1059890016913414 0.2267169952392578 -0.9416800141334534 -0.1597830057144165 0.29615500569343567
          -0.9260910153388977 -0.14397500455379486 0.3487490117549896 -0.7197350263595581 0.6170409917831421 0.3181860148906708
          -0.655938982963562 0.62745600938797 0.41957399249076843 -0.7396500110626221 0.3741599917411804 0.5593940019607544
          -0.8738809823989868 0.2827650010585785 0.39544299244880676 -0.9183589816093445 0.31949499249458313 0.23353900015354156
          -0.874288022518158 -0.18239299952983856 0.44983699917793274 -0.9261929988861084 -0.026340000331401825 0.37612900137901306
          -0.745822012424469 -0.19576400518417358 0.6367300152778625 -0.8411089777946472 -0.008054000325500965 0.540805995464325
          -0.8683279752731323 0.2219330072402954 0.4435670077800751 -0.8052600026130676 0.22136500477790833 0.5500490069389343
          -0.8561199903488159 0.08679799735546112 0.5094360113143921 -0.9176859855651855 -0.007215999998152256 0.3972409963607788
          -0.853708028793335 -0.1956930011510849 0.48258399963378906 -0.9921889901161194 -0.021649999544024467 -0.12285000085830688
          -0.9626579880714417 -0.1064940020442009 -0.24889400601387024 -0.9940869808197021 0.09654299914836884 -0.04970400035381317
          -0.9704099893569946 0.2409300059080124 0.01606700010597706 -0.7988579869270325 0.09180700033903122 -0.5944719910621643
          -0.7038170099258423 -0.0913740023970604 -0.704479992389679 -0.6006249785423279 0.034814998507499695 -0.7987719774246216
          -0.48505300283432007 -0.07467299699783325 -0.8712909817695618 -0.5278220176696777 0.1623159945011139 -0.8337010145187378
          -0.8021069765090942 -0.20462599396705627 -0.5610290169715881 -0.676505982875824 -0.7114449739456177 0.19022299349308014
          -0.6747199892997742 -0.7059170007705688 0.21548700332641602 -0.5569959878921509 -0.7870669960975647 0.2651059925556183
          -0.8485440015792847 -0.5267030000686646 0.05057299882173538 -0.9057319760322571 -0.38435500860214233 -0.1786630004644394
          -0.8216850161552429 -0.35042300820350647 -0.44948500394821167 -0.8488659858703613 -0.4101499915122986 -0.3334740102291107
          -0.8742719888687134 -0.40565401315689087 -0.266635000705719 0.41839200258255005 0.45603200793266296 -0.7854819893836975
          0.25725001096725464 0.274150013923645 -0.9266420006752014 0.38257700204849243 0.28015100955963135 -0.8804259896278381
          0.4153920114040375 0.30243998765945435 -0.8578919768333435 0.4003559947013855 0.41088899970054626 -0.8190760016441345
          -0.036375999450683594 0.22247999906539917 -0.9742590188980103 0.2754949927330017 0.2012919932603836 -0.9399909973144531
          0.1478559970855713 0.2085849940776825 -0.9667630195617676 0.33521100878715515 0.19220300018787384 -0.9223290085792542
          -0.33808401226997375 0.10949999839067459 -0.934723973274231 -0.3757930099964142 -0.1275160014629364 -0.9178889989852905
          -0.5457410216331482 -0.13271500170230865 -0.8273770213127136 -0.6750929951667786 -0.12985800206661224 -0.7262139916419983
          -0.570838987827301 -0.05604900047183037 -0.819146990776062 -0.7895510196685791 -0.04403400048613548 -0.6121029853820801
          -0.598609983921051 -0.15089400112628937 -0.7867000102996826 0.4107680022716522 0.4189769923686981 -0.8097710013389587
          0.46591299772262573 0.2731429934501648 -0.8416159749031067 0.36952200531959534 0.12623800337314606 -0.9206069707870483
          0.1908469945192337 -0.025200000032782555 -0.9812960028648376 -0.2891559898853302 -0.08751499652862549 -0.9532729983329773
          0.049998000264167786 -0.05886099860072136 -0.9970129728317261 -0.1594099998474121 0.034258998930454254 -0.9866179823875427
          -0.2702159881591797 -0.03591800108551979 -0.9621289968490601 0.05278300121426582 -0.09076599776744843 -0.9944720268249512
          -0.5943620204925537 -0.5750719904899597 0.5621629953384399 -0.7127019762992859 -0.6126160025596619 0.3416979908943176
          -0.5126469731330872 -0.7344509959220886 0.44471898674964905 -0.46605899930000305 -0.7041249871253967 0.5357199907302856
          -0.4844740033149719 -0.8591150045394897 0.16494600474834442 -0.4730469882488251 -0.8391990065574646 0.2682740092277527
          -0.5141249895095825 -0.7759559750556946 0.3654699921607971 -0.13476499915122986 -0.9881809949874878 0.07305800169706345
          -0.5636289715766907 -0.8258820176124573 -0.015529000200331211 0.9682459831237793 -0.24936099350452423 -0.01785299926996231
          0.7511420249938965 -0.6397910118103027 -0.162648007273674 -0.4529680013656616 -0.8564890027046204 -0.24748100340366364
          0.2930620014667511 0.9438400268554688 -0.15257999300956726 -0.8204630017280579 0.5655959844589233 -0.08331900089979172
          -0.5595420002937317 -0.37509799003601074 0.739063024520874 -0.5756800174713135 -0.3985559940338135 0.7139649987220764
          -0.5902050137519836 -0.34801098704338074 0.7283859848976135 -0.5066440105438232 -0.5681329965591431 0.6484889984130859
          -0.5352920293807983 -0.18871599435806274 0.8233159780502319 -0.5587499737739563 -0.007639000192284584 0.8293009996414185
          -0.5952110290527344 0.15542800724506378 0.7883949875831604 -0.6516129970550537 0.2700459957122803 0.7088549733161926
          -0.5849429965019226 0.27927398681640625 0.7614780068397522 -0.6390100121498108 0.4675529897212982 0.6107869744300842
          -0.7022349834442139 0.6063299775123596 0.37313398718833923 -0.6893849968910217 0.7243750095367432 -0.005472999997437
          -0.6926069855690002 0.6836850047111511 0.2299329936504364 -0.3395119905471802 -0.5774160027503967 0.742510974407196
          -0.15032699704170227 -0.6822239756584167 0.7155219912528992 -0.21034100651741028 -0.9687319993972778 0.13158999383449554
          0.014759000390768051 -0.9432960152626038 0.3316250145435333 -0.40313801169395447 -0.7902359962463379 0.4615260064601898
          -0.09156999737024307 -0.8636630177497864 0.4956830143928528 -0.04058099910616875 -0.8528590202331543 0.5205609798431396
          -0.07484299689531326 -0.8508639931678772 0.5200279951095581 -0.1841599941253662 -0.8356189727783203 0.5175189971923828
          -0.418846994638443 -0.6789069771766663 0.6030359864234924 -0.5519850254058838 -0.557515025138855 0.6200720071792603
          -0.5959460139274597 -0.7553120255470276 0.2726750075817108 -0.7211809754371643 0.6519569754600525 0.23420000076293945
          -0.7675809860229492 0.45775601267814636 -0.44864100217819214 -0.7744230031967163 0.3563379943370819 -0.522773027420044
          -0.8475160002708435 0.3530089855194092 -0.39636099338531494 -0.7696729898452759 0.47274601459503174 -0.42908599972724915
          -0.840067982673645 0.33164098858833313 -0.42930200695991516 -0.7348510026931763 0.2700349986553192 -0.6221539974212646
          -0.810712993144989 0.23785200715065002 -0.534949004650116 -0.9203069806098938 0.17127400636672974 -0.3517119884490967
          -0.9152920246124268 0.09137500077486038 -0.39229100942611694 -0.974407970905304 0.06647899746894836 -0.21473200619220734
          0.1677210032939911 0.2882840037345886 -0.9427419900894165 -0.9991070032119751 -0.03518800064921379 -0.02336999960243702
          -0.9948009848594666 -0.08743000030517578 0.05222000181674957 -0.9805629849433899 -0.1164809986948967 0.15789000689983368
          -0.9418740272521973 -0.23394200205802917 0.24113300442695618 -0.933014988899231 -0.2548399865627289 0.2540470063686371
          -0.9396520256996155 -0.30007898807525635 0.1643349975347519 -0.8445050120353699 -0.27081099152565 0.4620310068130493
          -0.8888009786605835 -0.37019601464271545 0.27016299962997437 -0.8991990089416504 -0.028189999982714653 0.4366300106048584