<?xml version="1.0"?>
<VTKFile type="PolyData" version="0.1" byte_order="LittleEndian" header_type="UInt32" compressor="vtkZLibDataCompressor">
  <PolyData>
    <Piece NumberOfPoints="1025" NumberOfVerts="0" NumberOfLines="0" NumberOfStrips="0" NumberOfPolys="2046">
      <PointData Normals="Normals">
        <DataArray type="Float32" Name="Normals" NumberOfComponents="3" format="ascii" RangeMin="0.9999993131364161" RangeMax="1.000000691175348">
          0.10681600123643875 0.3587929904460907 0.9272850155830383 0.21242700517177582 0.3104110062122345 0.926563024520874
          -0.4506720006465912 0.20622199773788452 0.8685430288314819 -0.42467400431632996 0.3372640013694763 0.8401820063591003
          0.6943920254707336 0.3235979974269867 0.6427320241928101 0.49379798769950867 0.38920900225639343 0.7776119709014893
          -0.4001469910144806 0.18823599815368652 0.8969110250473022 -0.05972300097346306 0.33116400241851807 0.9416810274124146
          0.3241089880466461 0.3775100111961365 0.8674330115318298 0.7622510194778442 0.34233999252319336 0.5493419766426086
          0.6760290265083313 0.35130101442337036 0.6477439999580383 -0.6464329957962036 0.11945799738168716 0.7535610198974609
          -0.8166850209236145 0.07528600096702576 0.5721520185470581 0.26919299364089966 0.43693000078201294 0.858269989490509
          -0.018592000007629395 0.3279550075531006 0.9445109963417053 -0.3243570029735565 0.2366340011358261 0.9158579707145691
          -0.7515829801559448 0.2982479929924011 0.588362991809845 -0.6346459984779358 0.3227050006389618 0.7022010087966919
          -0.8806319832801819 0.1529349982738495 0.44843998551368713 0.9249629974365234 0.2719520032405853 0.2654919922351837
          0.8319669961929321 0.4401560127735138 0.3377760052680969 0.7825260162353516 0.3619630038738251 0.5065929889678955
          -0.18136699497699738 0.34439200162887573 0.9211410284042358 -0.665473997592926 0.1658719927072525 0.72775799036026
          0.25086599588394165 0.47492799162864685 0.8435109853744507 0.9371070265769958 0.22548599541187286 0.2664310038089752
          0.4820390045642853 0.39185500144958496 0.7836380004882812 0.7852020263671875 0.23499399423599243 0.5729190111160278
          -0.7589769959449768 0.049966000020504 0.6491979956626892 -0.6122400164604187 0.13120099902153015 0.7797099947929382
          -0.9304929971694946 -0.07051300257444382 0.35945799946784973 -0.9345769882202148 -0.03862600028514862 0.35365599393844604
          -0.9472150206565857 -0.008549000136554241 0.32048600912094116 -0.8925229907035828 -0.034515999257564545 0.44968000054359436
          0.47895699739456177 0.40915900468826294 0.776652991771698 -0.43707600235939026 0.21308200061321259 0.8738200068473816
          -0.2698670029640198 0.23130300641059875 0.9347040057182312 -0.1614679992198944 0.23267899453639984 0.95905601978302
          0.4529460072517395 0.3320930004119873 0.82737797498703 -0.06887499988079071 0.27175500988960266 0.9598990082740784
          -0.18310299515724182 0.2266640067100525 0.9566069841384888 -0.4216180145740509 0.12178199738264084 0.8985589742660522
          -0.20831499993801117 0.1954050064086914 0.9583430290222168 -0.5828729867935181 0.050560999661684036 0.8109890222549438
          -0.3495219945907593 0.2101850062608719 0.9130480289459229 -0.5632759928703308 0.09803000092506409 0.8204330205917358
          -0.5569379925727844 0.23791399598121643 0.7957490086555481 -0.756197988986969 0.1791680008172989 0.6293359994888306
          -0.9548720121383667 0.07896800339221954 0.28632599115371704 -0.8935649991035461 0.11139799654483795 0.43489301204681396
          -0.9893239736557007 -0.017844000831246376 0.14463399350643158 -0.9794920086860657 -0.025543000549077988 0.1998559981584549
          0.9751790165901184 0.1936109960079193 0.10742300003767014 0.9653559923171997 0.2585029900074005 0.03554899990558624
          0.9643059968948364 0.26106300950050354 0.0442809984087944 0.9424989819526672 0.17655299603939056 0.2837679982185364
          0.9634889960289001 0.19510500133037567 0.18336500227451324 0.7039669752120972 0.2568399906158447 0.6621659994125366
          -0.6633110046386719 0.16635000705718994 0.7296209931373596 -0.3458150029182434 0.19271700084209442 0.9182990193367004
          0.3203740119934082 0.22681599855422974 0.9197360277175903 -0.7292129993438721 0.1457269936800003 0.6685900092124939
          0.9896309971809387 0.135453999042511 0.04776899889111519 0.9892359972000122 0.1158519983291626 0.08938799798488617
          0.9087619781494141 0.21285900473594666 0.3589470088481903 0.9633989930152893 0.1330769956111908 0.23271000385284424
          0.5246210098266602 0.13905200362205505 0.8399029970169067 0.7935490012168884 0.12384200096130371 0.5957710146903992
          0.9491890072822571 0.113257996737957 0.2936210036277771 -0.7870650291442871 0.036628998816013336 0.6157810091972351
          -0.5315319895744324 0.12961499392986298 0.8370620012283325 -0.5705119967460632 0.17128700017929077 0.8032289743423462
          -0.7461270093917847 0.0757879987359047 0.6614770293235779 -0.6716129779815674 0.09741900116205215 0.734470009803772
          -0.9678379893302917 -0.11415500193834305 0.2241860032081604 -0.9856730103492737 -0.1116430014371872 0.12642799317836761
          -0.9227570295333862 -0.04796399921178818 0.3823870122432709 -0.8411099910736084 0.01570099964737892 0.5406360030174255
          -0.8261809945106506 0.04088300094008446 0.5619189739227295 -0.8741350173950195 -0.006792999804019928 0.48563599586486816
          -0.3819020092487335 0.18473300337791443 0.9055520296096802 0.28832799196243286 0.30025699734687805 0.9092379808425903
          -0.05196399986743927 0.22615300118923187 0.9727050065994263 -0.5243819952011108 -0.0021899999119341373 0.8514800071716309
          -0.39998599886894226 0.12770000100135803 0.9075809717178345 -0.7953010201454163 -0.137596994638443 0.5903930068016052
          -0.7251889705657959 0.011780999600887299 0.6884490251541138 -0.8468220233917236 0.015951000154018402 0.5316370129585266
          -0.9702399969100952 -0.024687999859452248 0.24088400602340698 -0.9869760274887085 -0.09971799701452255 0.12623299658298492
          -0.9893890023231506 -0.13107599318027496 0.06267999857664108 0.9832670092582703 0.18138399720191956 -0.016915999352931976
          0.9858329892158508 0.16773000359535217 0.0005549999768845737 0.9906989932060242 0.13458199799060822 0.02007400058209896
          0.9066780209541321 0.17674100399017334 0.38301101326942444 0.9325870275497437 0.28106600046157837 0.22645899653434753
          0.9650970101356506 0.26120299100875854 0.01899000070989132 0.36090999841690063 0.20951299369335175 0.9087619781494141
          0.5425099730491638 0.14261600375175476 0.8278549909591675 0.8184919953346252 0.1954050064086914 0.5402659773826599
          -0.5823900103569031 0.14406399428844452 0.8000419735908508 -0.10102400183677673 0.18187500536441803 0.9781190156936646
          0.13462400436401367 0.17113299667835236 0.9760069847106934 0.9916380047798157 0.11529400199651718 0.05798099935054779
          0.9955049753189087 0.08879700303077698 0.032926999032497406 0.9967470169067383 0.07490400224924088 0.02975899912416935
          0.99823397397995 0.05747099965810776 0.015023999847471714 0.28741198778152466 0.11217200011014938 0.9512159824371338
          0.5960289835929871 0.08167999982833862 0.7987980246543884 0.7887709736824036 0.027111999690532684 0.6140890121459961
          0.9561020135879517 0.045802999287843704 0.28943198919296265 0.944911003112793 -0.02462499961256981 0.3264000117778778
          0.9884430170059204 0.03620599955320358 0.1472029983997345 -0.5521730184555054 0.1314219981431961 0.8233060240745544
          -0.6254450082778931 0.14013899862766266 0.7675809860229492 -0.6743329763412476 0.10870099812746048 0.7303829789161682
          -0.9726449847221375 -0.07764899730682373 0.21893300116062164 -0.9890559911727905 -0.11600899696350098 0.09115900099277496
          -0.985929012298584 -0.16319899260997772 0.036184001713991165 -0.9963350296020508 -0.07430599629878998 0.04238099977374077
          -0.9889249801635742 -0.1459989994764328 0.026677999645471573 -0.996196985244751 -0.07842200249433517 0.037957001477479935
          -0.9223830103874207 0.006486999802291393 0.3862220048904419 -0.7865920066833496 0.08166400343179703 0.6120499968528748
          -0.003938000183552504 0.17298699915409088 0.9849159717559814 -0.3114120066165924 0.07578500360250473 0.9472479820251465
          -0.23469200730323792 -0.3400520086288452 0.9106500148773193 -0.3242889940738678 -0.1534859985113144 0.9334229826927185
          -0.5725619792938232 -0.10272400081157684 0.8134009838104248 -0.8447309732437134 -0.09990599751472473 0.5257830023765564
          -0.9515169858932495 -0.18547099828720093 0.245388001203537 -0.8496800065040588 -0.41504600644111633 0.32524099946022034
          -0.7131419777870178 -0.35394901037216187 0.605102002620697 -0.9986739754676819 -0.028039000928401947 0.04317399859428406
          -0.9803329706192017 -0.0887409970164299 0.1762710064649582 -0.9900529980659485 -0.12585100531578064 0.0629040002822876
          -0.9879350066184998 -0.14456899464130402 -0.055539000779390335 -0.9905869960784912 -0.13555899262428284 0.018991999328136444
          0.9834570288658142 0.1692509949207306 0.06454399973154068 0.9690840244293213 0.15327900648117065 0.19334599375724792
          0.9592379927635193 0.26184698939323425 0.10629300028085709 0.9080100059509277 0.17357200384140015 0.3813000023365021
          0.9361820220947266 0.3513459861278534 -0.010935000143945217 0.9427030086517334 0.3016499876976013 -0.14253899455070496
          0.983834981918335 0.16078400611877441 -0.07885400205850601 0.8104559779167175 0.05867300182580948 0.5828539729118347
          0.7126500010490417 -0.16172899305820465 0.682623028755188 0.34455201029777527 -0.0038930000737309456 0.9387590289115906
          -0.421299010515213 0.17475299537181854 0.889926016330719 -0.1358090043067932 0.14975500106811523 0.9793519973754883
          0.9918649792671204 0.12673300504684448 0.011915000155568123 0.9922130107879639 0.09558799862861633 -0.07985500246286392
          0.9792559742927551 0.03935199975967407 -0.19877099990844727 0.9555709958076477 -0.04033000022172928 -0.2919900119304657
          0.9790899753570557 -0.06627699732780457 -0.19232599437236786 0.9925749897956848 -0.11956000328063965 0.02236899919807911
          0.36083298921585083 0.057693000882864 0.9308440089225769 -0.026373999193310738 0.11577499657869339 0.9929249882698059
          0.8089179992675781 0.006769999861717224 0.5878819823265076 0.6171550154685974 -0.012556999921798706 0.7867410182952881
          0.9654430150985718 -0.14007000625133514 0.21977199614048004 0.8965489864349365 -0.05398700013756752 0.4396420121192932
          -0.4403580129146576 0.15130600333213806 0.8849809765815735 -0.4484489858150482 0.14002199470996857 0.8827720284461975
          -0.6369450092315674 0.11211699992418289 0.7627130150794983 -0.9870399832725525 -0.10702099651098251 0.1195719987154007
          -0.990801990032196 -0.07329399883747101 0.11375000327825546 -0.9891840219497681 -0.13669200241565704 -0.053196001797914505
          -0.9934669733047485 -0.11124800145626068 0.025425000116229057 -0.9886239767074585 -0.12820999324321747 -0.07863999903202057
          -0.9673870205879211 -0.10868699848651886 -0.2287999987602234 -0.9084950089454651 0.04932200163602829 0.41497498750686646
          -0.9751070141792297 -0.007656000088900328 0.22160199284553528 -0.840399980545044 0.0660649985074997 0.5379239916801453
          -0.729610025882721 0.07482700049877167 0.6797569990158081 0.019721999764442444 -0.02227099984884262 0.9995570182800293
          -0.04219000041484833 -0.26497000455856323 0.963333010673523 -0.4839189946651459 -0.3663319945335388 0.794746994972229
          -0.21583500504493713 -0.6212610006332397 0.753292977809906 0.166361004114151 -0.6808000206947327 0.7133269906044006
          0.32359400391578674 -0.5759050250053406 0.7507460117340088 -0.9677280187606812 -0.24764899909496307 0.04660800099372864
          -0.911791980266571 -0.3740060031414032 0.16957099735736847 -0.9635019898414612 -0.2572610080242157 0.07403799891471863
          -0.5424000024795532 -0.6898790001869202 0.47944700717926025 -0.783195972442627 -0.6132040023803711 0.10288800299167633
          -0.9874399900436401 -0.05471799895167351 0.14821800589561462 -0.9874579906463623 0.048486001789569855 -0.1502549946308136
          -0.9594129920005798 -0.03538399934768677 -0.27977699041366577 -0.8358389735221863 -0.5246819853782654 0.16149799525737762
          -0.8412449955940247 -0.37340399622917175 0.39099299907684326 -0.9298250079154968 -0.3313629925251007 0.1600780040025711
          0.9986000061035156 -0.05048999935388565 -0.015790000557899475 0.9543460011482239 -0.28530800342559814 -0.08844999969005585
          0.99372398853302 0.10038500279188156 -0.049359001219272614 0.9974799752235413 -0.06978999823331833 0.012795000337064266
          0.9545320272445679 -0.06532099843025208 0.2908630073070526 0.998524010181427 0.03920700028538704 -0.037588998675346375
          0.9986730217933655 -0.028801999986171722 -0.04268300160765648 0.9756540060043335 0.1844020038843155 -0.11872199922800064
          0.962486982345581 0.22371099889278412 -0.15353499352931976 0.9753879904747009 0.15417000651359558 -0.15763600170612335
          0.9496210217475891 0.2873010039329529 -0.12521100044250488 0.9878110289573669 0.08953899890184402 -0.1273300051689148
          0.8660069704055786 -0.20023900270462036 0.4581870138645172 0.7739539742469788 -0.46227699518203735 0.4327769875526428
          0.6168079972267151 -0.485258013010025 0.6197350025177002 0.3580609858036041 -0.3012009859085083 0.8837820291519165
          -0.32978901267051697 0.15528100728988647 0.9311959743499756 -0.40567299723625183 0.14336399734020233 0.9027050137519836
          0.990772008895874 0.07619699835777283 -0.11209499835968018 0.9897599816322327 0.0701880007982254 -0.12428999692201614
          0.9754859805107117 0.059397999197244644 -0.21189500391483307 0.9481909871101379 -0.02322000078856945 -0.31685200333595276
          0.9316340088844299 -0.010276000015437603 -0.36325401067733765 0.9445359706878662 -0.005423999857157469 -0.32836198806762695
          0.9074220061302185 -0.022026000544428825 -0.41964200139045715 0.8781840205192566 -0.1363060027360916 -0.4584900140762329
          0.9499109983444214 -0.09149300307035446 -0.29882800579071045 0.9838190078735352 -0.12294399738311768 -0.1303270012140274
          0.9641510248184204 -0.061889998614788055 -0.2580370008945465 0.9696890115737915 -0.07841400057077408 -0.2314160019159317
          0.9834079742431641 -0.17948000133037567 0.026360999792814255 0.9841160178184509 -0.15669600665569305 -0.08343800157308578
          0.10042399913072586 0.08647699654102325 0.9911789894104004 0.4126810133457184 -0.017968999221920967 0.9106979966163635
          0.17004400491714478 -0.0029909999575465918 0.9854320287704468 -0.20531900227069855 0.06853300333023071 0.9762930274009705
          0.8191379904747009 -0.08213599771261215 0.5676850080490112 0.9828150272369385 -0.16304199397563934 0.08655799925327301
          0.7457399964332581 -0.1035040020942688 0.658149003982544 0.5111989974975586 -0.08828199654817581 0.854915976524353
          0.7500010132789612 0.10160200297832489 0.6535859704017639 0.48294100165367126 0.12694600224494934 0.8664019703865051
          -0.4800499975681305 0.09280099719762802 0.8723189830780029 -0.9979910254478455 -0.05439100041985512 0.0324769988656044
          -0.9938499927520752 -0.10177399963140488 -0.04363200068473816 -0.9752249717712402 -0.1524990051984787 -0.16025200486183167
          -0.9902849793434143 -0.11214400082826614 -0.08222000300884247 -0.9519469738006592 -0.16244299709796906 -0.2596319913864136
          -0.8534700274467468 -0.22648300230503082 -0.4693549871444702 -0.8546310067176819 -0.1322290003299713 -0.5021169781684875
          -0.9828310012817383 -0.007313000038266182 0.18436400592327118 -0.9293649792671204 0.019274000078439713 0.36865800619125366
          -0.8299850225448608 0.05554800108075142 0.5550130009651184 -0.6871539950370789 0.08343999832868576 0.7217040061950684
          0.0021989999804645777 -0.8688330054283142 0.4951010048389435 0.4380269944667816 -0.8115649819374084 0.38664498925209045
          0.599032998085022 -0.7530590295791626 0.27214300632476807 -0.795877993106842 -0.5935840010643005 0.11931899935007095
          -0.8895130157470703 -0.4228839874267578 0.17302100360393524 -0.8860509991645813 -0.45811301469802856 0.07102899998426437
          -0.40718498826026917 -0.9071750044822693 0.10598699748516083 -0.948511004447937 -0.2216469943523407 0.22627200186252594
          -0.9437839984893799 -0.22209900617599487 0.2448350042104721 -0.9835780262947083 -0.17630299925804138 0.03863200172781944
          -0.9935060143470764 -0.008646000176668167 -0.11344599723815918 -0.9890769720077515 0.09514900296926498 -0.112575002014637
          -0.9109969735145569 0.060446999967098236 -0.4079590141773224 -0.788661003112793 -0.549235999584198 0.27632200717926025
          -0.8641420006752014 -0.36145099997520447 0.3501589894294739 -0.6560189723968506 -0.4615109860897064 0.597199022769928
          -0.6735180020332336 -0.4640519917011261 0.5753520131111145 0.9718080163002014 -0.22630800306797028 0.06613200157880783
          0.9118949770927429 -0.4067870080471039 -0.05451599881052971 0.9370359778404236 -0.340736985206604 -0.07656999677419662
          0.9026700258255005 -0.4024069905281067 0.1525000035762787 0.9904800057411194 -0.12268400192260742 -0.06243700161576271
          0.9375209808349609 -0.3456270098686218 -0.03994999825954437 0.9336779713630676 0.31477800011634827 -0.17076300084590912
          0.9498869776725769 0.27650898694992065 -0.145796999335289 0.9737840294837952 0.2201700061559677 -0.05717699974775314
          0.9676529765129089 0.19882699847221375 -0.1552940011024475 0.9846600294113159 -0.1732500046491623 0.02070700004696846
          0.9424939751625061 0.11654700338840485 -0.3132449984550476 0.9343360066413879 0.18195299804210663 -0.30644699931144714
          0.7631350159645081 -0.6132429838180542 0.20385800302028656 -0.46327701210975647 0.09035000205039978 0.881596028804779
          0.9402250051498413 0.09058599919080734 -0.32828500866889954 0.9473959803581238 0.03385299816727638 -0.31826698780059814
          0.9335479736328125 0.05541900172829628 -0.3541429936885834 0.8856819868087769 0.07026199996471405 -0.45894500613212585
          0.8776289820671082 -0.16376300156116486 -0.4504980146884918 0.6683689951896667 -0.2141920030117035 -0.712323009967804
          0.7751520276069641 -0.24794499576091766 -0.5810880064964294 0.9657269716262817 -0.0738150030374527 -0.2488429993391037
          0.9885650277137756 -0.029458999633789062 -0.14789099991321564 0.9889469742774963 -0.037007998675107956 -0.14357399940490723
          0.9743720293045044 -0.14065000414848328 -0.17554700374603271 0.973904013633728 -0.14686700701713562 -0.17303800582885742
          0.9725350141525269 -0.08399999886751175 -0.21707099676132202 0.07014200091362 -0.022285999730229378 0.9972879886627197
          -0.07873199880123138 -0.02501700073480606 0.9965819716453552 -0.5046259760856628 0.0618709996342659 0.8611180186271667
          -0.37699198722839355 0.00776899978518486 0.9261839985847473 0.9181140065193176 -0.16701500117778778 0.3594070076942444
          0.9630100131034851 -0.2232459932565689 -0.15090900659561157 0.9555889964103699 -0.22246499359607697 -0.19328300654888153
          0.938165009021759 -0.2663649916648865 -0.22112500667572021 0.8375570178031921 -0.11381799727678299 0.5343629717826843
          0.7221980094909668 -0.12460199743509293 0.6803709864616394 0.43552398681640625 -0.10876599699258804 0.8935819864273071
          0.12645700573921204 -0.06665799766778946 0.9897300004959106 0.664330005645752 -0.07818000018596649 0.743340015411377
          0.6803150177001953 -0.12152399867773056 0.7227749824523926 0.4691829979419708 0.06509599834680557 0.8806989789009094
          -0.2543709874153137 0.07068199664354324 0.9645199775695801 -0.605925977230072 0.08394800126552582 0.7910789847373962
          -0.9958800077438354 -0.0874290019273758 -0.024083999916911125 -0.8765720129013062 -0.20789000391960144 -0.4340530037879944
          -0.8719130158424377 -0.23093000054359436 -0.431784987449646 -0.9455360174179077 -0.1578740030527115 -0.28467100858688354
          -0.8882259726524353 -0.22228699922561646 -0.4020479917526245 -0.794107973575592 -0.28324800729751587 -0.537738025188446
          -0.7275230288505554 -0.22141799330711365 -0.6493719816207886 -0.6409929990768433 -0.304953008890152 -0.7043660283088684
          -0.6864219903945923 -0.11655300110578537 -0.7178019881248474 -0.9861969947814941 -0.08395899832248688 0.14270900189876556
          -0.8759459853172302 0.017943000420928 0.4820759892463684 -0.9515860080718994 -0.0053400001488626 0.3073360025882721
          -0.5489550232887268 0.08831699937582016 0.8311730027198792 -0.8037760257720947 -0.0005699999746866524 0.5949320197105408
          -0.6360160112380981 0.06743700057268143 0.7687230110168457 0.17881299555301666 -0.9820129871368408 0.06062899902462959
          0.4094730019569397 -0.9115890264511108 -0.03657500073313713 0.4406369924545288 -0.8965970277786255 -0.044199999421834946
          0.4664419889450073 -0.8843470215797424 -0.01901799999177456 0.7416880130767822 -0.6696979999542236 0.037466999143362045
          -0.6084070205688477 -0.7929329872131348 0.03314200043678284 -0.804423987865448 -0.5891780257225037 0.07596500217914581
          -0.7500060200691223 -0.6611679792404175 0.018658999353647232 -0.17287899553775787 -0.9825009703636169 -0.06931500136852264
          -0.9228730201721191 -0.3113510012626648 0.22664199769496918 -0.9480410218238831 -0.31284099817276 0.05787200108170509
          -0.9073820114135742 -0.3683370053768158 -0.2024489939212799 -0.9335650205612183 -0.26997798681259155 -0.23572899401187897
          -0.9354379773139954 -0.14160500466823578 -0.32388898730278015 -0.9317259788513184 0.044964998960494995 -0.360368013381958
          -0.7166370153427124 0.007267000153660774 -0.6974080204963684 -0.6925299763679504 -0.528099000453949 0.491441011428833
          -0.3756679892539978 -0.9042490124702454 0.20299400389194489 -0.7813910245895386 -0.531715989112854 0.3266589939594269
          -0.5154690146446228 -0.6871979832649231 0.511909008026123 0.7617700099945068 -0.6449949741363525 -0.06072600185871124
          0.8751720190048218 -0.47796499729156494 -0.07498999685049057 0.8779739737510681 -0.4709869921207428 0.08563199639320374
          0.7991880178451538 -0.6003410220146179 -0.029836000874638557 0.906141996383667 0.3033910095691681 -0.29472100734710693
          0.9789789915084839 0.16987599432468414 -0.11288099735975266 0.9922289848327637 0.11191599816083908 -0.05436599999666214
          0.9379379749298096 0.17554600536823273 -0.2990899980068207 0.9673399925231934 0.22229500114917755 -0.12180999666452408
          0.9558749794960022 0.2286510020494461 -0.1844490021467209 0.9734749794006348 -0.22879399359226227 0.0006419999990612268
          0.9002169966697693 -0.4240129888057709 0.09911400079727173 0.9093800187110901 0.16459399461746216 -0.38201698660850525
          0.9352110028266907 0.17951899766921997 -0.3052099943161011 0.9633020162582397 0.15285100042819977 -0.22064700722694397
          0.9177939891815186 0.13414999842643738 -0.37370699644088745 0.971697986125946 0.1341170072555542 -0.19446399807929993
          0.7981799840927124 0.12900899350643158 -0.5884439945220947 0.60801100730896 0.004782000090926886 -0.7939140200614929
          0.9594539999961853 -0.09306199848651886 -0.266059011220932 0.866320013999939 -0.1994599997997284 -0.45793700218200684
          0.5360119938850403 -0.28102999925613403 -0.7960609793663025 0.27417200803756714 -0.2940250039100647 -0.9156299829483032
          0.16519999504089355 -0.1928109973669052 -0.9672290086746216 0.978568971157074 -0.11771100014448166 -0.168955996632576
          0.9625679850578308 -0.21378999948501587 -0.1666029989719391 0.9249290227890015 -0.20756499469280243 -0.3184700012207031
          0.9620850086212158 -0.16008999943733215 -0.22082599997520447 0.9492869973182678 -0.19093799591064453 -0.24979500472545624
          0.9638050198554993 -0.1542389988899231 -0.21746200323104858 0.9422789812088013 -0.1578489989042282 -0.29528799653053284
          -0.15433800220489502 -0.012342999689280987 0.9879410266876221 -0.6346510052680969 0.022551000118255615 0.7724699974060059
          -0.463454008102417 -0.01474899984896183 0.885998010635376 -0.07530099898576736 -0.04445600137114525 0.9961689710617065
          -0.15227599442005157 -0.06748100370168686 0.9860320091247559 0.9593160152435303 -0.11488399654626846 0.25790199637413025
          0.9229639768600464 -0.22554999589920044 -0.3118729889392853 0.9161450266838074 -0.21522699296474457 -0.3381649851799011
          0.9782230257987976 -0.13482199609279633 -0.15780599415302277 0.9062010049819946 -0.20425200462341309 -0.37024301290512085
          0.8412969708442688 -0.09467799961566925 0.5322179794311523 0.3415449857711792 -0.1164890006184578 0.9326189756393433
          0.5219929814338684 -0.09011299908161163 0.8481760025024414 0.4564779996871948 -0.12348300218582153 0.8811240196228027
          0.2738949954509735 -0.11528600007295609 0.9548249840736389 0.329925000667572 -0.07035999745130539 0.9413809776306152
          0.6455289721488953 -0.10668600350618362 0.7562479972839355 0.9412969946861267 -0.04218599945306778 0.33493301272392273
          0.932096004486084 -0.042153000831604004 0.35975098609924316 -0.9424329996109009 -0.16622699797153473 -0.29015201330184937
          -0.991562008857727 -0.12245199829339981 -0.042552001774311066 -0.7699030041694641 -0.2434079945087433 -0.589917004108429
          -0.924015998840332 -0.19619999825954437 -0.3281779885292053 -0.9702119827270508 -0.13113099336624146 -0.2037000060081482
          -0.893248975276947 -0.18045799434185028 -0.4117540121078491 -0.9215310215950012 -0.1842239946126938 -0.341823011636734
          -0.8243489861488342 -0.24517899751663208 -0.5102319717407227 -0.7451789975166321 -0.24210700392723083 -0.6213639974594116
          -0.7214080095291138 -0.2657870054244995 -0.6394739747047424 -0.5827710032463074 -0.2662549912929535 -0.7677800059318542
          -0.2808479964733124 -0.22761599719524384 -0.9323710203170776 -0.5065910220146179 -0.23903900384902954 -0.8283870220184326
          -0.3916020095348358 -0.2606160044670105 -0.8824549913406372 -0.2999759912490845 -0.1434510052204132 -0.9430990219116211
          -0.9630020260810852 -0.1498589962720871 0.2239830046892166 -0.9831979870796204 -0.1695539951324463 0.06762699782848358
          -0.9422720074653625 -0.04957500100135803 0.33115699887275696 -0.9887769818305969 -0.1489730030298233 -0.011242999695241451
          -0.9477049708366394 -0.09599100053310394 0.3043699860572815 -0.8963649868965149 -0.026606999337673187 0.4425170123577118
          -0.8246520161628723 -0.07236400246620178 0.5609930157661438 -0.8791599869728088 -0.18023699522018433 0.4411259889602661
          -0.9228320121765137 -0.07616499811410904 0.37759700417518616 -0.744907021522522 -0.0037269999738782644 0.6671580076217651
          0.2250249981880188 -0.9743009805679321 -0.010094000026583672 0.306084007024765 -0.9424780011177063 -0.13433800637722015
          0.310463011264801 -0.9497460126876831 -0.03995199874043465 0.5458080172538757 -0.8343070149421692 -0.07762599736452103
          -0.5037299990653992 -0.8638550043106079 0.0031759999692440033 -0.8981750011444092 -0.4324890077114105 0.07896500080823898
          -0.8150820136070251 -0.562720000743866 -0.13779599964618683 -0.7625020146369934 -0.4309920072555542 -0.48253199458122253
          -0.7765660285949707 -0.33033299446105957 -0.5364930033683777 -0.717307984828949 -0.3760469853878021 -0.5865650177001953
          -0.790818989276886 -0.13863399624824524 -0.5961419939994812 -0.6361240148544312 -0.08925999701023102 -0.7664059996604919
          -0.47289299964904785 -0.13098199665546417 -0.8713300228118896 -0.5496649742126465 -0.057836998254060745 -0.8333809971809387
          -0.553613007068634 -0.052956998348236084 -0.8310880064964294 -0.2910130023956299 -0.8914890289306641 0.34721601009368896
          -0.035284001380205154 -0.9616979956626892 0.2718319892883301 0.3167650103569031 -0.9066420197486877 0.27867600321769714
          0.38081198930740356 -0.9109190106391907 0.1587740033864975 -0.4990920126438141 -0.8221719861030579 0.27375298738479614
          -0.7197999954223633 -0.6929839849472046 0.04075999930500984 0.6857079863548279 -0.7195259928703308 0.10993999987840652
          0.7638859748840332 -0.6209239959716797 0.17587600648403168 0.7763580083847046 -0.6296089887619019 0.029330000281333923
          0.640425980091095 -0.7655869722366333 0.06108500063419342 0.5884349942207336 -0.8085439801216125 0.0009379999828524888
          0.9294769763946533 0.17382100224494934 -0.32535800337791443 0.746321976184845 0.16124199330806732 -0.6457589864730835
          0.9972609877586365 -0.05736900120973587 -0.04668400064110756 0.7629860043525696 -0.029935000464320183 -0.6457210183143616
          0.9319980144500732 0.07021400332450867 -0.35559698939323425 0.8497350215911865 0.18090400099754333 -0.4952009916305542
          0.9552289843559265 0.2353149950504303 -0.1793449968099594 0.8559349775314331 -0.5107600092887878 0.08062800019979477
          0.9174699783325195 -0.3977609872817993 -0.005894999951124191 0.9045230150222778 0.11867299675941467 -0.40957799553871155
          0.9495429992675781 0.16692300140857697 -0.26552900671958923 0.644985020160675 -0.020997999235987663 -0.7639070153236389