<?xml version="1.0"?>
<VTKFile type="PolyData" version="0.1" byte_order="LittleEndian" header_type="UInt32" compressor="vtkZLibDataCompressor">
  <PolyData>
    <Piece NumberOfPoints="1884" NumberOfVerts="0" NumberOfLines="0" NumberOfStrips="0" NumberOfPolys="3725">
      <PointData Normals="Normals">
        <DataArray type="Float32" Name="Normals" NumberOfComponents="3" format="ascii" RangeMin="0.9999991486772015" RangeMax="1.0000008466471728">
          0.1633239984512329 -0.9046750068664551 -0.39355799555778503 0.4536210000514984 -0.7924799919128418 -0.4076809883117676
          0.48614999651908875 -0.7792789936065674 -0.39545300602912903 0.3154299855232239 -0.8761109709739685 -0.3646000027656555
          0.12767699360847473 -0.9316779971122742 -0.34011000394821167 -0.15597499907016754 -0.9436740279197693 -0.29180800914764404
          -0.22998900711536407 -0.9439610242843628 -0.23673200607299805 -0.04824399948120117 -0.9773749709129333 -0.20593899488449097
          0.6147440075874329 -0.6709809899330139 -0.41457700729370117 0.5668669939041138 -0.6679630279541016 -0.4821699857711792
          0.49947500228881836 -0.6994240283966064 -0.5112059712409973 0.35811498761177063 -0.8612149953842163 -0.3606410026550293
          0.31401899456977844 -0.9295099973678589 -0.19340099394321442 0.6583529710769653 -0.6993420124053955 -0.2783749997615814
          0.17802399396896362 -0.9667459726333618 -0.18359999358654022 0.040637001395225525 -0.9451680183410645 -0.3240469992160797
          -0.21993699669837952 -0.9456809759140015 -0.23940399289131165 -0.41400399804115295 -0.8986089825630188 -0.14526599645614624
          -0.43174201250076294 -0.9010549783706665 0.04120799899101257 -0.18648500740528107 -0.98191899061203 0.03254000097513199
          0.7086309790611267 -0.5882790088653564 -0.3895759880542755 0.667635977268219 -0.5464649796485901 -0.505607008934021
          0.5521140098571777 -0.6069689989089966 -0.5716279745101929 0.5434010028839111 -0.5984650254249573 -0.5886890292167664
          0.6395130157470703 -0.5349630117416382 -0.5521209836006165 0.23666499555110931 -0.8796420097351074 -0.4125770032405853
          0.426474004983902 -0.7543780207633972 -0.49903300404548645 0.613415002822876 -0.5441589951515198 -0.5723749995231628
          0.22338399291038513 -0.9693679809570312 -0.10210999846458435 -0.2256460040807724 -0.9710059762001038 0.07893899828195572
          0.5411120057106018 -0.8258939981460571 -0.15841899812221527 0.6100119948387146 -0.7863849997520447 -0.09739000350236893
          0.5385950207710266 -0.8235949873924255 -0.17778199911117554 -0.12439599633216858 -0.9354199767112732 -0.3309299945831299
          -0.26910001039505005 -0.9497029781341553 -0.16015499830245972 -0.48912501335144043 -0.8711150288581848 0.04376000165939331
          -0.5845270156860352 -0.7764729857444763 0.23541000485420227 0.6854580044746399 -0.7121250033378601 -0.15174399316310883
          0.7052059769630432 -0.41903001070022583 -0.5719249844551086 0.6797170042991638 -0.5170819759368896 -0.5202019810676575
          0.7840650081634521 -0.4681270122528076 -0.4075529873371124 0.7959079742431641 -0.5848180055618286 -0.1565829962491989
          0.6079009771347046 -0.4335489869117737 -0.6651999950408936 0.41582000255584717 -0.6042029857635498 -0.6797299981117249
          0.4876439869403839 -0.49432501196861267 -0.7196159958839417 0.38187599182128906 -0.7299370169639587 -0.5668889880180359
          0.1546570062637329 -0.8805189728736877 -0.4480699896812439 0.018742000684142113 -0.9977099895477295 0.06498400121927261
          0.17828400433063507 -0.9839410185813904 -0.008719000034034252 -0.020538000389933586 -0.9773920178413391 0.2104330062866211
          -0.2575230002403259 -0.9252709746360779 0.2784869968891144 -0.34871798753738403 -0.888139009475708 0.29934099316596985
          -0.5850769877433777 -0.734404981136322 0.3439989984035492 0.398173987865448 -0.9139500260353088 -0.07844000309705734
          0.32768601179122925 -0.9410780072212219 0.08363600075244904 0.2791390120983124 -0.9324390292167664 0.22943300008773804
          0.5975790023803711 -0.7876539826393127 0.1499989926815033 -0.14491499960422516 -0.9266970157623291 -0.34674501419067383
          -0.3606649935245514 -0.9015560150146484 -0.23899300396442413 -0.4011420011520386 -0.8944979906082153 -0.19738000631332397
          -0.41711699962615967 -0.9056469798088074 -0.07627099752426147 -0.49277999997138977 -0.865261971950531 0.09213999658823013
          -0.6170169711112976 -0.7277830243110657 0.2993699908256531 -0.7053220272064209 -0.5757690072059631 0.413536012172699
          0.7753450274467468 -0.4011099934577942 -0.48780301213264465 0.6295080184936523 -0.2792069911956787 -0.7250959873199463
          0.8086069822311401 -0.24544499814510345 -0.5347059965133667 0.8162339925765991 -0.44753000140190125 -0.3653469979763031
          0.8799359798431396 -0.2676889896392822 -0.39249899983406067 0.7472599744796753 -0.6386560201644897 0.18363000452518463
          0.8481500148773193 -0.4691930115222931 0.24596500396728516 0.8703640103340149 -0.4090929925441742 -0.27406200766563416
          0.8764700293540955 -0.44036900997161865 -0.19461800158023834 0.9153810143470764 -0.40238600969314575 0.01272599957883358
          0.5770059823989868 -0.39677199721336365 -0.7138879895210266 0.27529799938201904 -0.545412003993988 -0.7916669845581055
          0.291703999042511 -0.735388994216919 -0.6116459965705872 0.21480700373649597 -0.6556339859962463 -0.7238789796829224
          0.5176950097084045 -0.3578470051288605 -0.7771340012550354 0.3272170126438141 -0.3961080014705658 -0.8579199910163879
          0.13019900023937225 -0.8521550297737122 -0.5068339705467224 0.03643200173974037 -0.987492024898529 0.15340100228786469
          -0.589102029800415 -0.7085989713668823 0.3883900046348572 -0.30670300126075745 -0.8850330114364624 0.35021600127220154
          -0.5709829926490784 -0.7227209806442261 0.3894270062446594 0.07067699730396271 -0.9515789747238159 0.29916998744010925
          0.2092359960079193 -0.9407320022583008 0.2669149935245514 -0.1475840061903 -0.92044597864151 0.3619360029697418
          -0.20976899564266205 -0.8956310153007507 0.39222800731658936 0.639240026473999 -0.6963099837303162 0.32638099789619446
          0.31625598669052124 -0.8977800011634827 0.306549996137619 -0.12468499690294266 -0.9181270003318787 -0.37616100907325745
          -0.32605600357055664 -0.9316449761390686 -0.16038799285888672 -0.4589869976043701 -0.8763319849967957 -0.14619800448417664
          -0.42973899841308594 -0.8998289704322815 -0.07504300028085709 -0.5356969833374023 -0.843313992023468 0.04301900044083595
          -0.5171260237693787 -0.8419820070266724 0.15377700328826904 -0.6026309728622437 -0.7245569825172424 0.33444398641586304
          -0.6647080183029175 -0.5338990092277527 0.5226039886474609 -0.7195619940757751 -0.5429700016975403 0.43291398882865906
          -0.6974560022354126 -0.5316439867019653 0.4805299937725067 -0.7736989855766296 -0.5218070149421692 0.35931599140167236
          -0.7025709748268127 -0.5947960019111633 0.3906550109386444 -0.5680810213088989 -0.6996440291404724 0.43333899974823
          0.49497899413108826 -0.21292899549007416 -0.8424109816551208 0.5122380256652832 -0.18668900430202484 -0.8383070230484009
          0.7037590146064758 -0.17598700523376465 -0.6882960200309753 0.6022329926490784 -0.1866379976272583 -0.7761970162391663
          0.8463640213012695 -0.1151610016822815 -0.520006000995636 0.8770229816436768 -0.1587029993534088 -0.4534800052642822
          0.9040340185165405 -0.12373500317335129 -0.40915998816490173 0.8707110285758972 -0.3414979875087738 -0.3538939952850342
          0.9272729754447937 -0.07297500222921371 -0.3672049939632416 0.9334840178489685 -0.24528899788856506 -0.2616110146045685
          0.9340980052947998 -0.11555500328540802 -0.337799996137619 0.9425380229949951 -0.16151300072669983 -0.2924630045890808
          0.6954460144042969 -0.5526679754257202 0.4592530131340027 0.9376220107078552 -0.25224000215530396 0.23925000429153442
          0.9062529802322388 -0.2680079936981201 0.3269209861755371 0.8361380100250244 -0.39923399686813354 0.37614598870277405
          0.8824620246887207 -0.3006269931793213 0.36177998781204224 0.9476019740104675 -0.29322800040245056 -0.12675899267196655
          0.983672022819519 -0.12303800135850906 0.13134700059890747 0.22007499635219574 -0.4740079939365387 -0.8525750041007996
          0.07600700110197067 -0.8081449866294861 -0.5840579867362976 0.22314900159835815 -0.5975049734115601 -0.7701900005340576
          0.059167999774217606 -0.7805290222167969 -0.6223130226135254 0.03528499975800514 -0.7779719829559326 -0.6273080110549927
          0.4122140109539032 -0.2630400061607361 -0.8722900152206421 0.3095580041408539 -0.4363020062446594 -0.8448749780654907
          0.3594129979610443 -0.2705950140953064 -0.8930850028991699 -0.10283999890089035 -0.9455649852752686 0.3087559938430786
          -0.17464500665664673 -0.916405975818634 0.3601379990577698 0.11886999756097794 -0.9433609843254089 0.30974099040031433
          -0.5032389760017395 -0.7407339811325073 0.44504499435424805 0.35466501116752625 -0.8909940123558044 0.2834469974040985
          0.5332090258598328 -0.7628269791603088 0.36576399207115173 -0.014766000211238861 -0.9505169987678528 0.31032299995422363
          -0.05077999830245972 -0.9247030019760132 0.37728700041770935 -0.11745300143957138 -0.8686190247535706 -0.48135900497436523
          -0.31523698568344116 -0.9198700189590454 -0.23337499797344208 -0.34103599190711975 -0.939848005771637 -0.01949400082230568
          -0.2800610065460205 -0.9593089818954468 -0.035943999886512756 -0.3502599895000458 -0.9366269707679749 0.006928000133484602
          -0.5487300157546997 -0.8288260102272034 0.10928899794816971 -0.39926600456237793 -0.9125570058822632 0.08846700191497803
          -0.570933997631073 -0.8143900036811829 0.10394199937582016 -0.5892980098724365 -0.7951650023460388 -0.1429699957370758
          -0.3161650002002716 -0.9299579858779907 -0.18766599893569946 -0.539188027381897 -0.7007629871368408 0.4671269953250885
          -0.6182060241699219 -0.6823229789733887 0.3901999890804291 -0.5526919960975647 -0.6461330056190491 0.5263500213623047
          -0.6037409901618958 -0.5663939714431763 0.5609760284423828 -0.6471359729766846 -0.502357006072998 0.5734559893608093
          -0.6606580018997192 -0.6005250215530396 0.4504460096359253 -0.6928560137748718 -0.6009060144424438 0.3985770046710968
          -0.6770110130310059 -0.5956950187683105 0.43220800161361694 -0.6559979915618896 -0.5995410084724426 0.45849499106407166
          -0.7976490259170532 -0.5007799863815308 0.33612000942230225 -0.8007929921150208 -0.5440750122070312 0.2504259943962097
          -0.737293004989624 -0.6175240278244019 0.27397599816322327 -0.735152006149292 -0.5529710054397583 0.3921400010585785
          -0.45890000462532043 -0.7991570234298706 0.38827499747276306 -0.6130049824714661 -0.6953020095825195 0.37520700693130493
          -0.6332160234451294 -0.6182839870452881 0.46557700634002686 0.4075720012187958 -0.2132200002670288 -0.8879320025444031
          0.37747400999069214 -0.15175500512123108 -0.9135010242462158 0.6218370199203491 -0.15575799345970154 -0.7675020098686218
          0.7591620087623596 -0.07965199649333954 -0.6460099816322327 0.8503730297088623 -0.06784799695014954 -0.5217880010604858
          0.8773459792137146 -0.09894400089979172 -0.46954700350761414 0.8763300180435181 -0.08191700279712677 -0.47469601035118103
          0.9291049838066101 0.028116999194025993 -0.3687469959259033 0.9456430077552795 -0.039840999990701675 -0.32275599241256714
          0.977213978767395 -0.14928799867630005 -0.15088100731372833 0.9605960249900818 -0.16898299753665924 -0.22067999839782715
          0.9493569731712341 -0.09130100160837173 -0.3006410002708435 0.9513670206069946 -0.05438400059938431 -0.30322301387786865
          0.9726660251617432 -0.0798719972372055 -0.21803900599479675 0.49354198575019836 -0.6708790063858032 0.5534780025482178
          0.2703210115432739 -0.6933460235595703 0.6679810285568237 0.318231999874115 -0.6557289958000183 0.6846519708633423
          0.7751200199127197 -0.3961920142173767 0.49215900897979736 0.6344500184059143 -0.5418530106544495 0.551243007183075
          0.9165030121803284 -0.09742899984121323 0.3879829943180084 0.8273969888687134 -0.3700839877128601 0.422435998916626
          0.8680139780044556 -0.24820299446582794 0.43005499243736267 0.9891149997711182 -0.14361700415611267 -0.03202800080180168
          0.9994149804115295 -0.03336299955844879 0.007466999813914299 0.948648989200592 0.05380700156092644 0.3117220103740692
          0.9203680157661438 0.022144999355077744 0.3904249966144562 0.005053000058978796 -0.9259610176086426 -0.3775840103626251
          0.09520100057125092 -0.8802919983863831 -0.4647819995880127 -0.08861599862575531 -0.8950899839401245 -0.43699198961257935
          -0.11629699915647507 -0.9410430192947388 -0.31766799092292786 0.1577489972114563 -0.5825750231742859 -0.7973219752311707
          0.11421900242567062 -0.7299839854240417 -0.6738529801368713 0.21044300496578217 -0.6043199896812439 -0.7684469819068909
          0.35676899552345276 -0.527970016002655 -0.7706900238990784 0.5082370042800903 -0.40693700313568115 -0.7590109705924988
          0.4900200068950653 -0.24327699840068817 -0.8370770215988159 0.17103399336338043 -0.9026979804039001 0.3948209881782532
          0.2269739955663681 -0.8528479933738708 0.4702480137348175 -0.07677900046110153 -0.9181060194969177 0.38882699608802795
          -0.382752001285553 -0.8526399731636047 0.35567599534988403 -0.1363449990749359 -0.973891019821167 -0.18151099979877472
          -0.40696099400520325 -0.9134359955787659 0.004133999813348055 -0.18337500095367432 -0.9830430150032043 0.00016900000628083944
          -0.3026930093765259 -0.948091983795166 0.09746299684047699 -0.19713400304317474 -0.9679070115089417 0.1558690071105957
          -0.3451690077781677 -0.9375280141830444 -0.04358899965882301 -0.35946598649024963 -0.8978480100631714 0.254271000623703
          -0.5918070077896118 -0.7701320052146912 0.23803600668907166 -0.4187150001525879 -0.8076239824295044 0.4152370095252991
          -0.5519850254058838 -0.7399880290031433 0.3843579888343811 -0.4648270010948181 -0.6721270084381104 0.5763520002365112
          -0.40285399556159973 -0.7360069751739502 0.544061005115509 -0.4333620071411133 -0.73225998878479 0.5253499746322632
          -0.5452020168304443 -0.6932960152626038 0.47126999497413635 -0.6267930269241333 -0.6450319886207581 0.43710899353027344
          -0.6144239902496338 -0.692654013633728 0.3777729868888855 -0.7851589918136597 -0.5317400097846985 0.317454993724823
          -0.7628589868545532 -0.5815410017967224 0.28258898854255676 -0.7828270196914673 -0.5852630138397217 0.21130600571632385
          -0.7141649723052979 -0.6364549994468689 0.29136601090431213 -0.6976420283317566 -0.5943170189857483 0.40010300278663635
          -0.7416489720344543 -0.5455800294876099 0.39025500416755676 -0.24279500544071198 -0.8417789936065674 0.4821400046348572
          -0.4792749881744385 -0.70420902967453 0.5238190293312073 -0.2633419930934906 -0.7334880232810974 0.6266149878501892
          -0.42464500665664673 -0.6900579929351807 0.5860859751701355 -0.5500059723854065 -0.6709570288658142 0.4973030090332031
          0.3872770071029663 -0.18977899849414825 -0.9022189974784851 0.38258299231529236 -0.40219900012016296 -0.8317850232124329
          0.5293920040130615 -0.38621699810028076 -0.7553669810295105 0.7395910024642944 -0.19801700115203857 -0.6432679891586304
          0.7834399938583374 0.07248999923467636 -0.6172249913215637 0.6789420247077942 -0.14125199615955353 -0.720475971698761
          0.6852790117263794 -0.18714399635791779 -0.7038249969482422 0.5906400084495544 0.09681300073862076 -0.8011069893836975
          0.640828013420105 0.02210099995136261 -0.7673659920692444 0.8234710097312927 -0.0049299998208880424 -0.5673369765281677
          0.9488440155982971 0.07173199951648712 -0.3074890077114105 0.9296349883079529 0.15579499304294586 -0.3339250087738037
          0.9027979969978333 0.17155900597572327 -0.39436501264572144 0.8901669979095459 0.10041200369596481 -0.44443199038505554
          0.9658060073852539 0.003381999908015132 -0.2592430114746094 0.9867479801177979 0.07277800142765045 -0.14502300322055817
          0.9977380037307739 0.04198300093412399 0.0525050014257431 0.206837996840477 -0.8205180168151855 0.5328869819641113
          -0.10830699652433395 -0.7725319862365723 0.6256710290908813 0.10613100230693817 -0.7620750069618225 0.6387310028076172
          -0.07808099687099457 -0.7285150289535522 0.6805649995803833 -0.23691099882125854 -0.7071250081062317 0.6662189960479736
          0.005985999945551157 -0.6561610102653503 0.754597008228302 0.61210697889328 -0.4666540026664734 0.6384040117263794
          0.3987540006637573 -0.5416219830513 0.7400280237197876 0.6809729933738708 -0.3671950101852417 0.6335960030555725
          0.8152030110359192 -0.29806700348854065 0.4965890049934387 0.861611008644104 -0.11463800072669983 0.4944530129432678
          0.8849009871482849 -0.09115000069141388 0.4567730128765106 0.8818749785423279 0.02806999906897545 0.4706459939479828
          0.9602349996566772 0.10469800233840942 0.25881698727607727 0.9360100030899048 0.1313530057668686 0.3265460133552551
          0.9194070100784302 0.08753400295972824 0.3834429979324341 0.909184992313385 -0.011362999677658081 0.416238009929657
          -0.1366640031337738 -0.9148820042610168 -0.37988701462745667 -0.07241900265216827 -0.6963269710540771 -0.714061975479126
          -0.09718900173902512 -0.7943819761276245 -0.5995919704437256 0.21587100625038147 -0.6152309775352478 -0.7582150101661682
          0.013141999952495098 -0.6565750241279602 -0.7541469931602478 0.43931400775909424 -0.538985013961792 -0.7186779975891113
          0.48756301403045654 -0.6004250049591064 -0.6338549852371216 0.7176070213317871 -0.40643200278282166 -0.5655570030212402
          0.6836240291595459 -0.29121100902557373 -0.6692190170288086 0.5579990148544312 -0.22398099303245544 -0.7990429997444153
          -0.11152099817991257 -0.8589720129966736 0.4997299909591675 -0.366008996963501 -0.8982239961624146 -0.24337300658226013
          0.017368000000715256 -0.970429003238678 0.2407590001821518 0.016455000266432762 -0.9992780089378357 0.03423300012946129
          -0.17546099424362183 -0.9547619819641113 -0.24008899927139282 -0.305184006690979 -0.9347599744796753 0.18189699947834015
          -0.3476099967956543 -0.9353209733963013 0.06588400155305862 -0.1902099996805191 -0.9384109973907471 0.28845301270484924
          -0.27755099534988403 -0.8986889719963074 -0.3395940065383911 -0.1723320037126541 -0.8307909965515137 0.529233992099762
          -0.30764999985694885 -0.7927359938621521 0.5262320041656494 -0.3391979932785034 -0.7047910094261169 0.6230689883232117
          -0.4890730082988739 -0.7651429772377014 0.41876399517059326 -0.5159670114517212 -0.7535640001296997 0.40733200311660767
          -0.6016280055046082 -0.7208870053291321 0.3440439999103546 -0.6383020281791687 -0.6992449760437012 0.3219110071659088
          -0.6328949928283691 -0.6534640192985535 0.415244996547699 -0.6732760071754456 -0.6329190135002136 0.3822459876537323
          -0.6388490200042725 -0.6416140198707581 0.42450401186943054 -0.6949790120124817 -0.6069980263710022 0.38543298840522766
          -0.34875398874282837 -0.7037019729614258 0.6190109848976135 0.5537359714508057 -0.20512300729751587 -0.8070319890975952
          0.4620159864425659 -0.35510000586509705 -0.8126779794692993 0.4567340016365051 -0.5615180134773254 -0.6899930238723755
          0.6416730284690857 -0.42230701446533203 -0.6402440071105957 0.9436100125312805 -0.03080499917268753 -0.3296230137348175
          0.8002499938011169 -0.24519599974155426 -0.547245979309082 0.6230720281600952 0.3007679879665375 -0.7220249772071838
          0.8651419878005981 0.19613400101661682 -0.46158498525619507 0.6521040201187134 -0.001970000099390745 -0.758126974105835
          0.5413200259208679 0.10127100348472595 -0.8346959948539734 0.7281529903411865 0.08856900036334991 -0.6796680092811584
          0.9235209822654724 0.23664100468158722 -0.3018450140953064 0.9285590052604675 0.23618699610233307 -0.28634700179100037
          0.9642019867897034 0.13500699400901794 -0.22822800278663635 0.8870609998703003 0.25685998797416687 -0.38359498977661133
          0.8943529725074768 0.3181459903717041 -0.31450900435447693 0.7741150259971619 0.20250000059604645 -0.5997830033302307
          0.7964879870414734 0.231687992811203 -0.5585049986839294 0.9673870205879211 0.16033600270748138 -0.19609899818897247
          0.9879599809646606 0.1504870057106018 0.03590400144457817 0.9617329835891724 0.10882200300693512 0.25144898891448975
          0.03745799884200096 -0.6922039985656738 0.7207300066947937 0.17381000518798828 -0.619704008102417 0.7653480172157288
          0.5061540007591248 -0.47292599081993103 0.7212129831314087 0.5379739999771118 -0.3984549939632416 0.7428439855575562
          0.5930870175361633 -0.32037898898124695 0.7386509776115417 0.8044040203094482 -0.20198500156402588 0.5586910247802734
          0.7771199941635132 -0.09679599851369858 0.6218640208244324 0.8513380289077759 -0.10243900120258331 0.514519989490509
          0.9008349776268005 -0.1620599925518036 0.40278100967407227 0.8802170157432556 0.027358999475836754 0.4737820029258728
          0.9144819974899292 0.08784399926662445 0.3949750065803528 0.9033380150794983 0.03138099983334541 0.42778098583221436
          -0.2640700042247772 -0.7012829780578613 -0.6621699929237366 -0.2790760099887848 -0.8067389726638794 -0.5208550095558167
          -0.32762399315834045 -0.7135769724845886 -0.6192489862442017 -0.051676999777555466 -0.6646980047225952 -0.7453230023384094
          0.23135000467300415 -0.6971880197525024 -0.6785330176353455 0.5512340068817139 -0.6267650127410889 -0.5507329702377319
          0.8458279967308044 -0.3034850060939789 -0.43871599435806274 0.8043419718742371 -0.42603400349617004 -0.4141620099544525
          0.7362930178642273 -0.29035401344299316 -0.6112020015716553 -0.39489200711250305 -0.7773900032043457 -0.4896169900894165
          0.1846349984407425 -0.9819239974021912 0.04165799915790558 0.05901600047945976 -0.8768979907035828 0.47703999280929565
          0.20128600299358368 -0.8991109728813171 0.38869398832321167 0.13264800608158112 -0.9660829901695251 0.22155700623989105
          0.13817299902439117 -0.989192008972168 -0.04905899986624718 0.05788600072264671 -0.9621430039405823 -0.26632800698280334
          -0.08117300271987915 -0.9801920056343079 -0.180650994181633 -0.0870949998497963 -0.9259759783744812 -0.36740100383758545
          -0.22131800651550293 -0.8287180066108704 -0.5140470266342163 -0.19651499390602112 -0.81877201795578 0.5394390225410461
          0.11057300120592117 -0.8342900276184082 0.5401239991188049 -0.06485199928283691 -0.829587996006012 0.5545960068702698
          -0.13017000257968903 -0.8249639868736267 0.5499910116195679 -0.2460789978504181 -0.7395060062408447 0.6265590190887451
          -0.13239699602127075 -0.8326410055160522 0.537755012512207 -0.2973810136318207 -0.8401870131492615 0.45348700881004333
          -0.275765985250473 -0.7203109860420227 0.6364780068397522 -0.38674598932266235 -0.830839991569519 0.40016600489616394
          -0.38175898790359497 -0.8111910223960876 0.44297799468040466 -0.5376060009002686 -0.7620739936828613 0.3608640134334564
          -0.5919219851493835 -0.7500290274620056 0.2951030135154724 -0.5843650102615356 -0.6104130148887634 0.5347089767456055
          -0.5041679739952087 -0.5497000217437744 0.6660659909248352 -0.5508540272712708 -0.7272149920463562 0.4095340073108673
          -0.4958139955997467 -0.5523809790611267 0.6701070070266724 -0.5007920265197754 -0.5052340030670166 0.7028130292892456
          -0.46395599842071533 -0.6859359741210938 0.5605679750442505 -0.5109490156173706 -0.685401976108551 0.5188019871711731
          -0.5756350159645081 -0.6213639974594116 0.5315549969673157 -0.5699669718742371 -0.6010389924049377 0.5602589845657349
          -0.1590059995651245 -0.7051180005073547 0.6910330057144165 0.7428209781646729 -0.31435200572013855 -0.5911009907722473
          0.5138540267944336 -0.502938985824585 -0.6949869990348816 0.40052101016044617 -0.6877149939537048 -0.6055009961128235
          0.45476099848747253 -0.6518020033836365 -0.6069149971008301 0.6502599716186523 -0.430990993976593 -0.6256269812583923
          0.5657100081443787 -0.4677630066871643 -0.679095983505249 0.9775570034980774 0.004234999883919954 -0.2106270045042038
          0.9937340021133423 -0.10148400068283081 -0.046842001378536224 0.8998720049858093 -0.08795300126075745 -0.4271939992904663
          0.8641949892044067 0.2119320034980774 -0.4563460052013397 0.9749760031700134 -0.09909900277853012 -0.19899900257587433
          0.7147219777107239 -0.25766000151634216 -0.6502180099487305 0.7917979955673218 -0.07033099979162216 -0.6067209839820862
          0.3338800072669983 0.1716189980506897 -0.9268609881401062 0.5543540120124817 0.2630839943885803 -0.789605975151062
          0.45162299275398254 0.03847000002861023 -0.8913789987564087 0.6218249797821045 0.11778400093317032 -0.7742480039596558
          0.7482010126113892 0.13321800529956818 -0.6499599814414978 0.9082610011100769 0.3011400103569031 -0.290475994348526
          0.923570990562439 0.31057000160217285 -0.2248629927635193 0.9451900124549866 0.20960299670696259 -0.2503660023212433
          0.9347530007362366 0.23969799280166626 -0.2622619867324829 0.7985470294952393 0.3144179880619049 -0.5132880210876465
          0.8069689869880676 0.3587380051612854 -0.4691559970378876 0.859188973903656 0.44859299063682556 -0.2460869997739792
          0.8623909950256348 0.46469199657440186 -0.2008569985628128 0.7225459814071655 0.13210299611091614 -0.6785839796066284
          0.9416580200195312 0.19352400302886963 -0.2753709852695465 0.9693139791488647 0.1939069926738739 -0.15109899640083313
          0.9583849906921387 0.27319398522377014 0.0828389972448349 0.9030110239982605 0.21308700740337372 0.37304800748825073
          0.9143419861793518 0.2460480034351349 0.32161998748779297 -0.25857099890708923 -0.6865500211715698 0.6795510053634644
          -0.05888700112700462 -0.6063860058784485 0.7929869890213013 0.24809199571609497 -0.5202000141143799 0.8172159790992737
          0.3900519907474518 -0.46370500326156616 0.79551100730896 0.3157320022583008 -0.3323419988155365 0.8887420296669006
          0.567209005355835 -0.15107500553131104 0.809598982334137 0.7947760224342346 0.10784900188446045 0.5972440242767334
          0.6604160070419312 0.09614600241184235 0.7447190284729004 0.6296859979629517 0.0643090009689331 0.774183988571167
          0.8477550148963928 -0.033222999423742294 0.5293459892272949 0.8281369805335999 0.13877299427986145 0.5430759787559509
          0.8481130003929138 0.06238799914717674 0.5261300206184387 0.8593220114707947 0.19954100251197815 0.4709019958972931
          0.8711040019989014 0.16935299336910248 0.4609749913215637 0.86981201171875 0.21108700335025787 0.44594699144363403
          -0.15904299914836884 -0.7146260142326355 -0.6811869740486145 -0.04456999897956848 -0.7108489871025085 -0.7019309997558594
          0.036309000104665756 -0.6881060004234314 -0.7247009873390198 0.4967019855976105 -0.6522650122642517 -0.5725709795951843
          0.2521800100803375 -0.7028489708900452 -0.6651380062103271 0.526298999786377 -0.6366099715232849 -0.5636810064315796
          0.7796210050582886 -0.4929809868335724 -0.3862139880657196 0.8872219920158386 -0.3388029932975769 -0.3131299912929535
          0.24017000198364258 -0.9658219814300537 0.09749799966812134 0.1977279931306839 -0.9753559827804565 -0.09790299832820892
          0.2984670102596283 -0.8252270221710205 0.4794979989528656 0.2500630021095276 -0.943011999130249 0.21953999996185303
          0.2945060133934021 -0.8958510160446167 0.33274298906326294 0.06491100043058395 -0.9367120265960693 -0.3440290093421936
          0.06308499723672867 -0.9335200190544128 -0.35293200612068176 0.03950100019574165 -0.8461170196533203 -0.5315309762954712
          -0.019408000633120537 -0.833512008190155 -0.5521609783172607 -0.10342799872159958 -0.8374630212783813 0.5366169810295105
          -0.03809000179171562 -0.8215979933738708 0.5687940120697021 0.30192700028419495 -0.7987310290336609 0.520451009273529
          0.3106819987297058 -0.7784349918365479 0.54544997215271 0.003252000082284212 -0.8418840169906616 0.5396490097045898
          0.17780999839305878 -0.8270570039749146 0.5332540273666382 -0.004466000013053417 -0.8418859839439392 0.53963702917099
          0.040637001395225525 -0.8258320093154907 0.5624499917030334 -0.1457030028104782 -0.8684059977531433 0.47396400570869446
          -0.43039900064468384 -0.8183709979057312 0.38082200288772583 -0.3364869952201843 -0.8392729759216309 0.4270800054073334
          -0.16801099479198456 -0.8961079716682434 0.4108070135116577 -0.489082008600235 -0.7264760136604309 0.48273399472236633
          -0.3634899854660034 -0.6065390110015869 0.7070959806442261 -0.33747801184654236 -0.49498000741004944 0.8006889820098877
          -0.35052499175071716 -0.41492900252342224 0.839622974395752 -0.2630780041217804 -0.5352309942245483 0.8026940226554871
          -0.4032210111618042 -0.366364985704422 0.8385639786720276 -0.5092769861221313 -0.5923029780387878 0.6243510246276855
          -0.4703519940376282 -0.40563100576400757 0.7837299704551697 -0.42552998661994934 -0.33401599526405334 0.8410459756851196
          -0.354977011680603 -0.6543430089950562 0.6677020192146301 0.777804970741272 -0.3900730013847351 -0.4928100109100342