<?xml version="1.0"?>
<VTKFile type="PolyData" version="0.1" byte_order="LittleEndian" header_type="UInt32" compressor="vtkZLibDataCompressor">
  <PolyData>
    <Piece NumberOfPoints="550" NumberOfVerts="0" NumberOfLines="0" NumberOfStrips="0" NumberOfPolys="1096">
      <PointData Normals="Normals">
        <DataArray type="Float32" Name="Normals" NumberOfComponents="3" format="ascii" RangeMin="0.9999992666095306" RangeMax="1.000000728598385">
          0.23114000260829926 -0.9101150035858154 0.3438979983329773 0.22998599708080292 -0.8999860286712646 0.37031400203704834
          0.2498999983072281 -0.748652994632721 0.6140589714050293 0.1709890067577362 -0.972357988357544 0.1590059995651245
          0.18924300372600555 -0.967743992805481 0.16630899906158447 0.14439000189304352 -0.7146419882774353 0.6844249963760376
          0.21761900186538696 -0.9192519783973694 0.32804998755455017 0.16696099936962128 -0.9594900012016296 0.2269420027732849
          0.09898299723863602 -0.8902069926261902 0.44467300176620483 0.21354800462722778 -0.5360389947891235 0.8167369961738586
          0.12147500365972519 -0.38190698623657227 0.9161829948425293 0.09550800174474716 -0.9935399889945984 0.061292000114917755
          0.2031169980764389 -0.9645410180091858 0.16853299736976624 -0.07537700235843658 -0.9531099796295166 0.2930870056152344
          0.09056899696588516 -0.9472749829292297 0.3073570132255554 0.20151099562644958 -0.9303879737854004 0.30621999502182007
          0.2214300036430359 -0.9614940285682678 0.16278299689292908 -0.07981099933385849 -0.27475500106811523 0.9581959843635559
          -0.0022249999456107616 -0.5384309887886047 0.8426669836044312 0.08281400054693222 -0.7442650198936462 0.6627299785614014
          0.11903899908065796 -0.8318679928779602 0.5420569777488708 0.16686199605464935 -0.7737820148468018 0.6110799908638
          0.20339399576187134 -0.791949987411499 0.5757139921188354 0.12446299940347672 -0.8998619914054871 0.418040007352829
          -0.09705399721860886 -0.9929940104484558 0.06740099936723709 0.08388599753379822 -0.9964749813079834 0.001231999951414764
          0.04773300141096115 -0.9620800018310547 0.26855799555778503 -0.03679699823260307 -0.8191789984703064 0.5723559856414795
          -0.09337099641561508 -0.9610949754714966 0.25995999574661255 -0.1762630045413971 -0.22735300660133362 0.9577270150184631
          0.023298000916838646 -0.0843920037150383 0.9961599707603455 0.09667199850082397 -0.11344999819993973 0.9888299703598022
          -0.02697099931538105 -0.30154600739479065 0.9530699849128723 -0.09035199880599976 -0.11427199840545654 0.9893320202827454
          0.03522400185465813 -0.11600399762392044 0.9926239848136902 -0.09806600213050842 -0.9374539852142334 0.3340109884738922
          0.06869299709796906 -0.9777430295944214 0.19823899865150452 0.2043450027704239 -0.9664499759674072 0.1556210070848465
          -0.34193599224090576 -0.6487759947776794 0.679830014705658 -0.2181369960308075 -0.8715869784355164 0.43903499841690063
          -0.1822810024023056 -0.8412659764289856 0.508965015411377 0.08263999968767166 -0.869871973991394 0.48630499839782715
          -0.03548400104045868 -0.8724330067634583 0.4874430000782013 0.11981099843978882 -0.7684320211410522 0.6286150217056274
          0.32501301169395447 -0.8980879783630371 0.296317994594574 0.21825000643730164 -0.9649199843406677 0.14593300223350525
          0.2942509949207306 -0.7488309741020203 0.5938590168952942 0.34044399857521057 -0.8493340015411377 0.40339699387550354
          0.31115901470184326 -0.8695480227470398 0.38349199295043945 -0.25969699025154114 -0.1534779965877533 0.9534159898757935
          -0.17516300082206726 -0.0580889992415905 0.9828240275382996 -0.16329100728034973 -0.12585900723934174 0.9785169959068298
          -0.23284199833869934 -0.1378609985113144 0.962693989276886 -0.23178699612617493 -0.2160930037498474 0.9484609961509705
          -0.26867198944091797 -0.20154200494289398 0.941910982131958 -0.1668819934129715 -0.26082998514175415 0.9508510231971741
          -0.06912499666213989 -0.3942070007324219 0.9164190292358398 -0.032823000103235245 -0.7174879908561707 0.6957970261573792
          -0.13643500208854675 -0.45562800765037537 0.8796520233154297 0.055167000740766525 -0.7457839846611023 0.6639000177383423
          0.2100359946489334 -0.7360479831695557 0.6435199975967407 0.021175000816583633 -0.7862880229949951 0.6174970269203186
          -0.15503400564193726 -0.978069007396698 -0.13908599317073822 -0.16704900562763214 -0.9792519807815552 0.11471600085496902
          -0.07420600205659866 -0.9258710145950317 -0.3704819977283478 0.20495599508285522 -0.9588549733161926 -0.19644300639629364
          0.3702070116996765 -0.9125639796257019 0.17370399832725525 -0.14402100443840027 -0.9516569972038269 0.27130499482154846
          -0.12089099735021591 -0.8736569881439209 0.47128400206565857 -0.08929499983787537 -0.7271639704704285 0.6806309819221497
          -0.03910199925303459 -0.5365200042724609 0.8429809808731079 -0.3282099962234497 -0.12639300525188446 0.9361100196838379
          -0.0010580000234767795 -0.12879200279712677 0.9916710257530212 0.11765599995851517 -0.0873429998755455 0.9892060160636902
          -0.03542599827051163 0.07980500161647797 0.9961810111999512 0.042107999324798584 -0.11617700010538101 0.9923359751701355
          0.0321430005133152 -0.14172899723052979 0.9893829822540283 0.00041199999395757914 -0.09742800146341324 0.9952430129051208
          -0.030755000188946724 0.17701800167560577 0.983726978302002 -0.2630020081996918 0.14243599772453308 0.9542229771614075
          -0.23478299379348755 -0.5766149759292603 0.7825549840927124 -0.42156898975372314 -0.7042070031166077 0.5712910294532776
          -0.38577800989151 -0.3098579943180084 0.8690009713172913 -0.4496619999408722 -0.42943599820137024 0.7831910252571106
          -0.5017099976539612 -0.5227689743041992 0.6892020106315613 -0.34779900312423706 -0.7778109908103943 0.5234940052032471
          -0.33745700120925903 -0.8059329986572266 0.4864110052585602 -0.08096300065517426 -0.7108849883079529 0.6986330151557922
          -0.06218399852514267 -0.8283630013465881 0.5567299723625183 0.13957400619983673 -0.8671799898147583 0.47803398966789246
          0.1915459930896759 -0.6108899712562561 0.7681949734687805 -0.10150299966335297 -0.832190990447998 0.5451189875602722
          0.3923789858818054 -0.8256819844245911 0.4053249955177307 0.48549801111221313 -0.6542789936065674 0.5798360109329224
          -0.2984820008277893 -0.0022299999836832285 0.9544129967689514 -0.22781799733638763 -0.058132998645305634 0.9719669818878174
          -0.3418169915676117 -0.10736700147390366 0.9336130023002625 -0.24571199715137482 -0.31770598888397217 0.9157990217208862
          -0.34512200951576233 -0.2386299967765808 0.9077150225639343 -0.06233999878168106 -0.9972969889640808 -0.038878001272678375
          0.09242700040340424 -0.9696779847145081 -0.22623400390148163 -0.05018800124526024 -0.9064379930496216 -0.41934698820114136
          0.08901499956846237 -0.9931240081787109 0.07602699846029282 -0.16954700648784637 -0.7261949777603149 -0.6662539839744568
          0.07468400150537491 -0.7390350103378296 -0.669514000415802 0.3816789984703064 -0.8607839941978455 -0.33670899271965027
          0.5924270153045654 -0.760761022567749 0.2650899887084961 -0.06669600307941437 -0.9092190265655518 0.4109410047531128
          -0.04737500101327896 -0.8278689980506897 0.5589179992675781 0.0029770000837743282 -0.7400910258293152 0.6725000143051147
          -0.06262599676847458 -0.312144011259079 0.9479680061340332 -0.11959899961948395 -0.10438600182533264 0.9873200058937073
          0.08395899832248688 -0.6806929707527161 0.7277420163154602 0.13293200731277466 -0.664497971534729 0.735372006893158
          -0.13822199404239655 -0.5330299735069275 0.8347300291061401 0.4482940137386322 -0.6750040054321289 0.5860049724578857
          0.7830860018730164 -0.6213719844818115 0.025950999930500984 -0.39769500494003296 0.01561999972909689 0.9173849821090698
          -0.03595300018787384 0.4213629961013794 0.9061790108680725 0.004286999814212322 0.5493929982185364 0.835552990436554
          -0.05130000039935112 0.09762100130319595 0.9939010143280029 0.03221900016069412 0.2680729925632477 0.9628599882125854
          0.057999998331069946 0.6133670210838318 0.7876650094985962 0.05166099965572357 0.6992170214653015 0.7130399942398071
          0.03187499940395355 0.4935629963874817 0.86912602186203 -0.17907500267028809 0.31001898646354675 0.9337130188941956
          -0.2469179928302765 0.3071439862251282 0.9190719723701477 -0.3196539878845215 0.2898249924182892 0.9021210074424744
          -0.300135999917984 0.03901199996471405 0.9530979990959167 -0.3804439902305603 0.009332000277936459 0.9247570037841797
          -0.3312090039253235 -0.2835710048675537 0.8999379873275757 -0.5751720070838928 -0.5889080166816711 0.5677710175514221
          -0.4256899952888489 -0.3409639894962311 0.8381710052490234 -0.30437400937080383 -0.24337199330329895 0.9209380149841309
          -0.5051490068435669 -0.5571929812431335 0.659060001373291 -0.5153509974479675 -0.6916760206222534 0.5059630274772644
          -0.5571119785308838 -0.7801560163497925 0.2845740020275116 -0.12611599266529083 -0.9252520203590393 0.3577759861946106
          -0.4040229916572571 -0.8059260249137878 0.4327220022678375 0.5091360211372375 -0.6783180236816406 0.529778003692627
          0.5475260019302368 -0.5494409799575806 0.6311339735984802 -0.2222049981355667 -0.7312769889831543 0.6448709964752197
          -0.2563450038433075 -0.7539129853248596 0.604898989200592 -0.07856299728155136 -0.8657559752464294 0.4942620098590851
          0.2799240052700043 -0.7571099996566772 0.5902770161628723 0.145346000790596 -0.7838730216026306 0.6036710143089294
          0.7175549864768982 -0.6253029704093933 0.3067750036716461 0.7371619939804077 -0.5756629705429077 0.35384300351142883
          -0.28662699460983276 -0.015922000631690025 0.9579100012779236 -0.29913198947906494 -0.1485919952392578 0.9425709843635559
          -0.3556729853153229 -0.1888190060853958 0.9153379797935486 0.1794780045747757 -0.8953040242195129 -0.40769898891448975
          0.0066559999249875546 -0.7924669981002808 -0.6098790168762207 0.57505202293396 -0.7994679808616638 -0.1736840009689331
          0.2131749987602234 -0.9384009838104248 0.2719550132751465 0.09700000286102295 -0.8608620166778564 0.49950700998306274
          0.040123000741004944 -0.8822169899940491 0.4691309928894043 0.2191530019044876 -0.8857750296592712 -0.4091149866580963
          -0.0038660001009702682 -0.49886900186538696 -0.8666689991950989 0.008111000061035156 -0.6184290051460266 -0.7857990264892578
          0.3487139940261841 -0.6797559857368469 -0.6452370285987854 0.2197670042514801 -0.4150620102882385 -0.8828510046005249
          0.08035700023174286 -0.6408290266990662 -0.763467013835907 0.5812640190124512 -0.6436859965324402 -0.49779701232910156
          0.7569249868392944 -0.6502869725227356 -0.06474799662828445 -0.12359300255775452 0.07479900121688843 0.9895099997520447
          0.014235000126063824 0.09936600178480148 0.9949489831924438 -0.1377120018005371 0.1721549928188324 0.9753959774971008
          0.14405100047588348 -0.8648329973220825 0.4809510111808777 0.334879994392395 -0.8179870247840881 0.4677090048789978
          0.6435689926147461 -0.6983550190925598 0.3132379949092865 0.6560879945755005 -0.006039999891072512 0.7546600103378296
          0.872704029083252 -0.48824799060821533 -0.0014059999957680702 0.8178219795227051 -0.5500490069389343 0.16915300488471985
          0.8621379733085632 -0.4874489903450012 -0.13824699819087982 0.8568369746208191 -0.47036999464035034 -0.21114499866962433
          0.9865739941596985 -0.05423400178551674 -0.15404599905014038 0.8707510232925415 -0.07011599838733673 -0.48669999837875366
          0.9888790249824524 -0.12849999964237213 0.07487600296735764 0.7552800178527832 -0.5661309957504272 -0.3302229940891266
          0.05307000130414963 0.6464809775352478 0.7610819935798645 0.12614299356937408 0.35315099358558655 0.9270229935646057
          -0.11662899702787399 0.413985013961792 0.9027810096740723 0.11690700054168701 0.3873080015182495 0.9145079851150513
          0.05701800063252449 0.6747260093688965 0.7358629703521729 -0.02266000024974346 0.44361600279808044 0.8959310054779053
          -0.14049099385738373 0.4059390127658844 0.9030370116233826 -0.1641709953546524 0.37724900245666504 0.9114450216293335
          -0.1147800013422966 0.3863460123538971 0.9151840209960938 -0.015471000224351883 0.48962700366973877 0.8717949986457825
          -0.14687100052833557 0.8100339770317078 0.56769198179245 0.16713599860668182 0.5448830127716064 0.8216860294342041
          0.5313569903373718 0.7863540053367615 0.31512999534606934 -0.06563100218772888 0.9832519888877869 0.17002199590206146
          -0.2752319872379303 0.4385089874267578 0.8555449843406677 -0.2559170126914978 0.17211900651454926 0.9512529969215393
          -0.352306991815567 0.43587300181388855 0.8281869888305664 -0.24122199416160583 -0.10813300311565399 0.9644269943237305
          -0.1998019963502884 0.02615099959075451 0.9794870018959045 -0.6512680053710938 -0.573028028011322 0.4974820017814636
          -0.47588101029396057 -0.3947640061378479 0.785938024520874 -0.6881110072135925 -0.6810029745101929 0.2504749894142151
          -0.35594600439071655 -0.18171599507331848 0.9166690111160278 -0.6506609916687012 -0.6461300253868103 0.3989439904689789
          -0.575888991355896 -0.8027399778366089 0.15479399263858795 -0.5627869963645935 -0.8001919984817505 0.20727500319480896
          -0.6249189972877502 -0.7485550045967102 0.22168099880218506 -0.4309940040111542 -0.8178849816322327 0.38119199872016907
          0.7581850290298462 -0.6147950291633606 0.21721500158309937 0.3159559965133667 -0.8501700162887573 0.4211679995059967
          0.24318400025367737 -0.8509610295295715 0.46553999185562134 0.4711349904537201 -0.859145998954773 0.19975100457668304
          -0.3635990023612976 -0.8874229788780212 0.2833310067653656 0.04944799840450287 -0.998769998550415 0.0035830000415444374
          -0.44896399974823 -0.8917189836502075 0.057172998785972595 0.8623679876327515 -0.5037620067596436 0.05045200139284134
          -0.2911109924316406 -0.18439500033855438 0.9387509822845459 0.17133399844169617 -0.7234060168266296 -0.6688259840011597
          0.8498119711875916 -0.5203210115432739 -0.08418100327253342 0.4917159974575043 -0.8604059815406799 0.1338520050048828
          0.530493974685669 -0.5739750266075134 -0.6238020062446594 0.8568170070648193 -0.4869909882545471 -0.1694210022687912
          0.85903000831604 -0.48608601093292236 -0.16058500111103058 0.10897400230169296 -0.36807000637054443 -0.9233899712562561
          0.08331900089979172 -0.2919139862060547 -0.9528089761734009 0.13676099479198456 -0.28227901458740234 -0.949533998966217
          -0.005431999918073416 -0.31240999698638916 -0.9499319791793823 0.13505400717258453 -0.34877100586891174 -0.9274259805679321
          0.1532759964466095 -0.3655019998550415 -0.9181039929389954 0.1359809935092926 -0.4389980137348175 -0.888139009475708
          0.17849500477313995 -0.1085209995508194 -0.9779379963874817 0.0702499970793724 -0.21118299663066864 -0.9749190211296082
          0.03000199981033802 -0.23435799777507782 -0.9716870188713074 0.4127349853515625 -0.13928799331188202 -0.9001380205154419
          0.5415779948234558 -0.43121498823165894 -0.7216280102729797 0.8466320037841797 -0.5176349878311157 -0.12356399744749069
          0.7351980209350586 -0.30660301446914673 -0.6045479774475098 -0.05820599943399429 0.444242000579834 0.8940140008926392
          0.32573598623275757 0.5349140167236328 0.779591977596283 -0.16304999589920044 0.4556550085544586 0.8750960230827332
          0.4339970052242279 0.8535590171813965 0.28824299573898315 0.8939819931983948 -0.4261600077152252 -0.13850300014019012
          0.9152950048446655 -0.3998109996318817 -0.048850998282432556 0.7970499992370605 -0.5013300180435181 -0.33671900629997253
          0.9172719717025757 -0.329008013010025 -0.22442500293254852 0.8245559930801392 -0.0026080000679939985 -0.5657740235328674
          0.5479689836502075 -0.1138020008802414 -0.8287209868431091 0.6623420119285583 -0.5670070052146912 -0.48969900608062744
          0.7189720273017883 -0.5421059727668762 -0.43497198820114136 0.7064260244369507 0.6889690160751343 -0.16212399303913116
          0.9134010076522827 -0.34546300768852234 -0.21529899537563324 0.5365830063819885 -0.7335240244865417 -0.41715899109840393
          0.6897569894790649 -0.5919600129127502 -0.41691699624061584 0.4939889907836914 -0.7537789940834045 -0.43334901332855225
          0.23836499452590942 0.2770569920539856 0.9308180212974548 0.23323999345302582 0.2849839925765991 0.929722011089325
          -0.04578600078821182 0.5517899990081787 0.8327249884605408 -0.25402501225471497 0.5744330286979675 0.7781379818916321
          -0.21563300490379333 0.7470129728317261 0.6288679838180542 -0.24201300740242004 0.9693040251731873 -0.04335600137710571
          0.16305799782276154 0.9049479961395264 0.3930410146713257 0.5477830171585083 0.8366199731826782 -0.0006329999887384474
          0.2948150038719177 0.9401199817657471 0.1710519939661026 -0.043368998914957047 0.9811599850654602 0.18826499581336975
          -0.2876580059528351 0.3472670018672943 0.8925570249557495 -0.22619600594043732 0.08298400044441223 0.9705410003662109
          -0.4882720112800598 0.1415729969739914 0.8611310124397278 -0.7088689804077148 -0.29458799958229065 0.6408770084381104
          -0.7411640286445618 -0.5380309820175171 0.4014950096607208 -0.6754990220069885 -0.7293760180473328 0.10822299867868423
          -0.611361026763916 -0.7122420072555542 0.3448899984359741 -0.6783090233802795 -0.6985380053520203 0.2279070019721985
          -0.8611230254173279 -0.4868830144405365 -0.14632700383663177 -0.8591780066490173 -0.4713200032711029 -0.19917599856853485
          -0.8640000224113464 -0.5009430050849915 0.05059799924492836 -0.8521429896354675 -0.493257999420166 -0.1747789978981018
          -0.5804430246353149 -0.8141210079193115 -0.01709200069308281 -0.5933200120925903 -0.7990580201148987 0.09735599905252457
          -0.6028649806976318 -0.789903998374939 0.11227499693632126 -0.5759860277175903 -0.7702460289001465 0.27379000186920166
          0.896028995513916 -0.4396989941596985 -0.06161800026893616 0.6792479753494263 -0.7227029800415039 0.12776100635528564
          0.8244720101356506 -0.5628039836883545 -0.059140998870134354 0.4554530084133148 -0.8901429772377014 -0.014379000291228294
          0.33874499797821045 -0.9142600297927856 -0.22222000360488892 -0.32675901055336 -0.913320004940033 -0.24305300414562225
          -0.12357199937105179 -0.8945930004119873 -0.42945700883865356 0.09122899919748306 -0.8733199834823608 -0.4785279929637909
          -0.5976009964942932 -0.795412003993988 -0.10096199810504913 -0.661421000957489 -0.704679012298584 -0.2568089962005615
          0.21219399571418762 -0.3260340094566345 -0.921235978603363 0.295183002948761 -0.2741529941558838 -0.9152640104293823
          0.7346559762954712 -0.2666040062904358 -0.6238610148429871 0.3916209936141968 -0.06723400205373764 -0.9176669716835022
          0.1122639998793602 -0.3605630099773407 -0.9259539842605591 0.14340299367904663 -0.3968549966812134 -0.9066100120544434
          0.1609629988670349 -0.34402701258659363 -0.925059974193573 0.0847029983997345 -0.3017979860305786 -0.9496020078659058
          0.09290000051259995 -0.2776150107383728 -0.9561899900436401 -0.09097299724817276 -0.24886099994182587 -0.964257001876831
          -0.07700099796056747 -0.29966500401496887 -0.9509320259094238 -0.0007570000016130507 0.026964999735355377 -0.9996359944343567
          0.046156998723745346 -0.23240099847316742 -0.9715240001678467 0.034915000200271606 -0.4431610107421875 -0.895762026309967
          0.09340500086545944 0.08825799822807312 -0.9917089939117432 0.24034300446510315 -0.029874000698328018 -0.9702280163764954
          0.5222070217132568 -0.035684000700712204 -0.85207200050354 0.44211098551750183 0.013144000433385372 -0.8968639969825745
          0.5872079730033875 -0.07537099719047546 -0.8059200048446655 0.30470600724220276 0.03407900035381317 -0.9518359899520874
          0.6683890223503113 0.0017600000137463212 -0.7438099980354309 0.8359289765357971 -0.18250900506973267 -0.5176029801368713
          0.09788600355386734 0.9733560085296631 -0.20735600590705872 0.555230975151062 0.06393399834632874 -0.8292350172996521
          0.4061110019683838 -0.49049198627471924 -0.7710319757461548 0.6427900195121765 -0.6217610239982605 -0.4474770128726959
          0.6012700200080872 -0.6623679995536804 -0.446927011013031 0.5556240081787109 -0.6737650036811829 -0.4871569871902466
          0.5923629999160767 -0.6173959970474243 -0.5176180005073547 0.514087975025177 0.7814810276031494 -0.35355499386787415
          0.8470529913902283 0.09758800268173218 -0.5224729776382446 0.7458480000495911 -0.4578849971294403 -0.48379001021385193
          0.789700984954834 -0.4843589961528778 -0.3765220046043396 -0.23876400291919708 0.6885089874267578 0.6847969889640808
          -0.21024900674819946 0.950007975101471 0.23082399368286133 -0.3229300081729889 0.9118520021438599 0.25346100330352783
          -0.2167080044746399 0.8956519961357117 0.388386994600296 -0.20839500427246094 0.8665329813957214 0.45353299379348755
          0.0038960000965744257 0.9998220205307007 0.018456999212503433 0.12246999889612198 0.9355850219726562 -0.33118298649787903
          0.01618099957704544 0.9214100241661072 -0.3882550001144409 0.4409089982509613 0.8874059915542603 -0.13457399606704712
          -0.058522000908851624 0.9381290078163147 0.3413049876689911 0.3516030013561249 0.8723030090332031 0.3397989869117737
          0.09155499935150146 0.9448419809341431 0.31446900963783264 -0.8371139764785767 0.24393799901008606 0.4896259903907776
          -0.912837028503418 0.22829100489616394 0.33854401111602783 -0.8553329706192017 0.09524200111627579 0.5092480182647705
          -0.6962770223617554 0.511506974697113 0.5035459995269775 -0.8079910278320312 -0.4560059905052185 0.37310799956321716
          -0.9114239811897278 -0.2793779969215393 0.30208098888397217 -0.9002810120582581 -0.12520499527454376 0.41691499948501587
          -0.8494880199432373 -0.4530409872531891 0.2704150080680847 -0.9292539954185486 -0.33040499687194824 0.16528399288654327
          -0.7310109734535217 -0.6098229885101318 -0.30616700649261475 -0.9166929721832275 -0.09606499969959259 -0.38787299394607544
          -0.8727949857711792 -0.4149729907512665 -0.2569560110569 -0.6830790042877197 -0.6796079874038696 -0.26746198534965515
          -0.977603018283844 -0.1520169973373413 -0.1455419957637787 0.597557008266449 -0.7915949821472168 -0.12768299877643585
          0.7752429842948914 -0.5740299820899963 -0.2636060118675232 0.2294670045375824 -0.8589580059051514 -0.45775100588798523
          0.5966989994049072 -0.6436910033226013 -0.4791789948940277 -0.20491400361061096 -0.8766869902610779 -0.43523600697517395
          -0.3086940050125122 -0.7498300075531006 -0.5852029919624329 -0.5491399765014648 -0.7549870014190674 -0.35838401317596436
          -0.25824299454689026 -0.8989499807357788 -0.35383498668670654 -0.1642419993877411 -0.8581380248069763 -0.4864409863948822
          -0.0580810010433197 -0.6200630068778992 -0.7823989987373352 0.3796060085296631 -0.3092209994792938 -0.8719409704208374
          -0.6127510070800781 -0.7696200013160706 -0.17949999868869781 -0.6419489979743958 -0.6235979795455933 -0.44612398743629456
          -0.6125670075416565 -0.6595510244369507 -0.43560799956321716 -0.7417380213737488 -0.4488230049610138 -0.49838000535964966
          0.021345999091863632 -0.07195299863815308 -0.9971799850463867 0.04024500027298927 -0.08600500226020813 -0.9954820275306702
          -0.04101400077342987 0.3509179949760437 -0.9355069994926453 -0.07376900315284729 0.25842800736427307 -0.9632099866867065
          -0.20159299671649933 0.06332399696111679 -0.9774199724197388 -0.04358299821615219 0.30894801020622253 -0.9500799775123596
          0.03177100047469139 -0.09247899800539017 -0.9952080249786377 0.11471399664878845 0.03562600165605545 -0.9927600026130676
          0.13404199481010437 -0.12756599485874176 -0.9827309846878052 0.18207700550556183 -0.17746900022029877 -0.967136025428772
          0.010858000256121159 -0.22435599565505981 -0.9744470119476318 -0.07485800236463547 -0.4091539978981018 -0.9093890190124512
          0.07194399833679199 -0.05979299917817116 -0.9956150054931641 0.19235700368881226 -0.27280399203300476 -0.9426429867744446
          0.07485999912023544 0.31721800565719604 -0.945393979549408 0.47851699590682983 0.08680800348520279 -0.8737769722938538
          0.5047900080680847 0.04570399969816208 -0.8620309829711914 0.6114469766616821 0.0017160000279545784 -0.7912840247154236
          0.35057100653648376 0.26030001044273376 -0.8996350169181824 0.4189620018005371 0.1864670068025589 -0.8886510133743286
          0.1696390062570572 0.24367199838161469 -0.9549059867858887 0.2376749962568283 0.2876729965209961 -0.9277690052986145
          0.6339679956436157 0.05094999819993973 -0.7716789841651917 0.6532930135726929 -0.015168000012636185 -0.7569530010223389
          0.6767410039901733 0.037980999797582626 -0.7352409958839417 0.7833319902420044 -0.2541170120239258 -0.5672879815101624
          0.44990798830986023 0.8894180059432983 0.08073300123214722 0.7772510051727295 0.6254709959030151 -0.06831800192594528
          0.25847700238227844 -0.3156599998474121 -0.9129890203475952 0.5505949854850769 -0.4960060119628906 -0.6714329719543457
          0.680312991142273 -0.47354599833488464 -0.5594000220298767 0.6960890293121338 -0.47206199169158936 -0.5409409999847412
          0.6564610004425049 -0.5285620093345642 -0.538221001625061 0.25859299302101135 -0.4407309889793396 -0.8595849871635437
          0.9081839919090271 0.1118680015206337 -0.4033440053462982 0.8785210251808167 -0.010673999786376953 -0.47758400440216064
          -0.08753000199794769 0.870747983455658 0.4838770031929016 -0.06525199860334396 0.882220983505249 0.46629101037979126
          -0.13953399658203125 0.8233029842376709 0.5501840114593506 -0.1676339954137802 0.7960799932479858 0.5815110206604004
          -0.09072799980640411 0.940617024898529 0.3271220028400421 -0.30245500802993774 0.7720530033111572 0.5589759945869446
          -0.3349350094795227 0.9417930245399475 0.029061999171972275 -0.34770500659942627 0.9027199745178223 -0.25337299704551697
          -0.21636000275611877 0.9459750056266785 0.24149399995803833 -0.23334799706935883 0.9709410071372986 0.0531340017914772
          -0.23410099744796753 0.9709680080413818 0.049166999757289886 -0.1683029979467392 0.535090982913971 -0.8278599977493286
          -0.2447890043258667 0.48867499828338623 -0.8374220132827759 -0.4693399965763092 0.4630900025367737 -0.7518429756164551
          -0.31650400161743164 0.9465969800949097 0.06147100031375885 -0.6174629926681519 0.6805490255355835 -0.3944529891014099
          -0.8213279843330383 0.5552570223808289 -0.1308020055294037 0.21672900021076202 0.9760040044784546 -0.021107999607920647
          -0.5051109790802002 0.7999910116195679 0.3238469958305359 0.7305769920349121 0.6510329842567444 0.20594599843025208
          0.7906910181045532 -0.0877240002155304 -0.6058970093727112 -0.9753209948539734 0.17395199835300446 0.13597699999809265
          -0.9585379958152771 0.20945699512958527 0.19321699440479279 -0.9979010224342346 0.05513999983668327 0.033962998539209366
          -0.9757769703865051 0.13652199506759644 0.17094099521636963 -0.9755020141601562 0.015273000113666058 0.21945999562740326
          -0.2306389957666397 0.8979309797286987 0.3748680055141449 -0.47665101289749146 0.8383119702339172 0.2646459937095642
          -0.8060569763183594 0.5899109840393066 0.047717999666929245 -0.8980479836463928 0.4369490146636963 -0.05085799843072891
          -0.9129949808120728 0.3762989938259125 0.15760600566864014 -0.880299985408783 -0.3390530049800873 -0.331835001707077
          -0.7894219756126404 0.16034799814224243 -0.5925379991531372 -0.7056689858436584 0.024480000138282776 -0.7081189751625061
          -0.8372610211372375 0.29449599981307983 -0.46072399616241455 -0.791217029094696 -0.04146900027990341 -0.6101279854774475
          -0.7931249737739563 -0.06603600084781647 -0.6054679751396179 -0.7675279974937439 -0.1843869984149933 -0.6139230132102966
          -0.8503620028495789 -0.2752560079097748 -0.44846200942993164 -0.9663919806480408 0.17457400262355804 -0.18870699405670166
          -0.5102409720420837 -0.6251630187034607 -0.5906140208244324 -0.4229179918766022 -0.47993698716163635 -0.7686359882354736
          -0.31981900334358215 -0.41495299339294434 -0.8517810106277466 -0.5640460252761841 -0.6401870250701904 -0.5215489864349365
          -0.10337000340223312 -0.2241230010986328 -0.9690629839897156 0.12319400161504745 -0.2654480040073395 -0.9562219977378845
          0.23136299848556519 0.12779200077056885 -0.9644380211830139 0.5120790004730225 0.09808199852705002 -0.8533200025558472
          0.5610139966011047 0.04208900034427643 -0.8267359733581543 -0.6135860085487366 -0.5628470182418823 -0.5538190007209778
          -0.525763988494873 -0.5322520136833191 -0.663536012172699 -0.4767960011959076 -0.36757999658584595 -0.7984679937362671
          -0.5974410176277161 -0.27569499611854553 -0.7530320286750793 -0.3174319863319397 0.1870030015707016 -0.9296600222587585
          -0.43543800711631775 0.10208799690008163 -0.8944119811058044 -0.24061599373817444 -0.5162929892539978 -0.8219159841537476