<?xml version="1.0"?>
<VTKFile type="PolyData" version="0.1" byte_order="LittleEndian" header_type="UInt32" compressor="vtkZLibDataCompressor">
  <PolyData>
    <Piece NumberOfPoints="550" NumberOfVerts="0" NumberOfLines="0" NumberOfStrips="0" NumberOfPolys="1096">
      <PointData Normals="Normals">
        <DataArray type="Float32" Name="Normals" NumberOfComponents="3" format="ascii" RangeMin="0.9999992811608253" RangeMax="1.000000723870035">
          0.23114199936389923 -0.9101110100746155 -0.3439069986343384 0.229994997382164 -0.8999810218811035 -0.3703179955482483
          0.24991700053215027 -0.7486469745635986 -0.6140599846839905 0.17098300158977509 -0.9723590016365051 -0.15900899469852448
          0.18925300240516663 -0.9677420258522034 -0.16630800068378448 0.14438800513744354 -0.7146400213241577 -0.6844279766082764
          0.21762299537658691 -0.9192479848861694 -0.3280610144138336 0.1669660061597824 -0.9594889879226685 -0.2269439995288849
          0.09898000210523605 -0.8902040123939514 -0.44467899203300476 0.21356500685214996 -0.5360360145568848 -0.8167340159416199
          0.12148600071668625 -0.38190698623657227 -0.9161810278892517 0.09550599753856659 -0.9935399889945984 -0.06129800155758858
          0.20311999320983887 -0.9645439982414246 -0.16851599514484406 -0.07537800073623657 -0.9531099796295166 -0.29308798909187317
          0.09057100117206573 -0.9472780227661133 -0.3073450028896332 0.20151199400424957 -0.9303900003433228 -0.30621498823165894
          0.22143599390983582 -0.9614940285682678 -0.16277599334716797 -0.07980500161647797 -0.2747580111026764 -0.9581959843635559
          -0.002217999892309308 -0.5384200215339661 -0.8426740169525146 0.08281800150871277 -0.7442489862442017 -0.6627479791641235
          0.11906100064516068 -0.8318700194358826 -0.5420479774475098 0.1668960005044937 -0.7737759947776794 -0.6110780239105225
          0.20341700315475464 -0.791933000087738 -0.5757290124893188 0.12446299940347672 -0.8998640179634094 -0.41803500056266785
          -0.09706100076436996 -0.9929940104484558 -0.0674000009894371 0.08388400077819824 -0.9964749813079834 -0.0012369999894872308
          0.047724999487400055 -0.9620779752731323 -0.2685660123825073 -0.03679699823260307 -0.8191800117492676 -0.5723549723625183
          -0.0933770015835762 -0.961093008518219 -0.2599639892578125 -0.17624600231647491 -0.22734999656677246 -0.9577310085296631
          0.023291999474167824 -0.08439800143241882 -0.9961599707603455 0.096670001745224 -0.11345099657773972 -0.9888299703598022
          -0.02697099931538105 -0.30155301094055176 -0.9530680179595947 -0.09035000205039978 -0.11427599936723709 -0.9893320202827454
          0.0352340005338192 -0.11600899696350098 -0.992622971534729 -0.09806700050830841 -0.9374539852142334 -0.3340109884738922
          0.06869299709796906 -0.9777500033378601 -0.19820499420166016 0.2043440043926239 -0.9664509892463684 -0.1556120067834854
          -0.3419399857521057 -0.6487680077552795 -0.6798359751701355 -0.21813100576400757 -0.8715919852256775 -0.4390290081501007
          -0.18228399753570557 -0.841264009475708 -0.5089669823646545 0.08263999968767166 -0.8698729872703552 -0.48630398511886597
          -0.03548400104045868 -0.872418999671936 -0.48747000098228455 0.11980900168418884 -0.7684299945831299 -0.6286190152168274
          0.3250179886817932 -0.8980799913406372 -0.29633501172065735 0.2182459980249405 -0.9649199843406677 -0.14594000577926636
          0.29424500465393066 -0.748835027217865 -0.5938569903373718 0.3404519855976105 -0.8493279814720154 -0.40340301394462585
          0.3111500144004822 -0.8695489764213562 -0.38349801301956177 -0.2596920132637024 -0.15348100662231445 -0.9534170031547546
          -0.17516300082206726 -0.05809599906206131 -0.9828240275382996 -0.1632869988679886 -0.12586799263954163 -0.9785169959068298
          -0.23284000158309937 -0.13785800337791443 -0.9626950025558472 -0.23178300261497498 -0.2160940021276474 -0.9484620094299316
          -0.26865699887275696 -0.2015639990568161 -0.941910982131958 -0.16687600314617157 -0.2608239948749542 -0.9508540034294128
          -0.06911300122737885 -0.3942199945449829 -0.9164140224456787 -0.0328189991414547 -0.7174689769744873 -0.6958169937133789
          -0.13642700016498566 -0.4556240141391754 -0.8796560168266296 0.055174000561237335 -0.7457889914512634 -0.6638929843902588
          0.2100519984960556 -0.7360349893569946 -0.643530011177063 0.02113799937069416 -0.7862859964370728 -0.6175010204315186
          -0.1550379991531372 -0.9780700206756592 0.1390800029039383 -0.167044997215271 -0.9792529940605164 -0.11471199989318848
          -0.07420700043439865 -0.9258720278739929 0.37047699093818665 0.20495499670505524 -0.9588549733161926 0.19644199311733246
          0.3702009916305542 -0.9125649929046631 -0.17371399700641632 -0.1440179944038391 -0.9516559839248657 -0.27131199836730957
          -0.1208920031785965 -0.8736590147018433 -0.4712800085544586 -0.08929300308227539 -0.7271689772605896 -0.6806259751319885
          -0.03910199925303459 -0.5365200042724609 -0.8429809808731079 -0.3282119929790497 -0.12639200687408447 -0.9361100196838379
          -0.0010629999451339245 -0.12878000736236572 -0.9916729927062988 0.11764000356197357 -0.0873359963297844 -0.9892079830169678
          -0.03542099893093109 0.07980100065469742 -0.9961810111999512 0.0420989990234375 -0.11616700142621994 -0.9923369884490967
          0.032148998230695724 -0.1417279988527298 -0.9893829822540283 0.0004079999926034361 -0.0974230021238327 -0.9952430129051208
          -0.030758000910282135 0.17701800167560577 -0.983726978302002 -0.2629989981651306 0.1424340009689331 -0.9542239904403687
          -0.23478899896144867 -0.5766159892082214 -0.7825520038604736 -0.4215790033340454 -0.7041879892349243 -0.5713070034980774
          -0.3857850134372711 -0.3098590075969696 -0.8689979910850525 -0.4496749937534332 -0.4294379949569702 -0.7831829786300659
          -0.5017139911651611 -0.5227590203285217 -0.6892070174217224 -0.347790002822876 -0.7778170108795166 -0.5234910249710083
          -0.3374530076980591 -0.8059340119361877 -0.4864110052585602 -0.08096899837255478 -0.7108719944953918 -0.6986449956893921
          -0.06218300014734268 -0.8283780217170715 -0.5567079782485962 0.13956999778747559 -0.8671749830245972 -0.4780460000038147
          0.19154499471187592 -0.6108819842338562 -0.7682009935379028 -0.10149700194597244 -0.8321769833564758 -0.5451419949531555
          0.39238399267196655 -0.82567298412323 -0.40533798933029175 0.48549601435661316 -0.6542810201644897 -0.5798360109329224
          -0.29848501086235046 -0.0022319999989122152 -0.9544119834899902 -0.2278199940919876 -0.05813699960708618 -0.971966028213501
          -0.34182000160217285 -0.10736200213432312 -0.9336130023002625 -0.24571900069713593 -0.31768798828125 -0.9158040285110474
          -0.3451150059700012 -0.23862800002098083 -0.9077180027961731 -0.0623369999229908 -0.997298002243042 0.0388760007917881
          0.09244000166654587 -0.9696750044822693 0.22624100744724274 -0.050181999802589417 -0.9064329862594604 0.4193589985370636
          0.08901900053024292 -0.9931240081787109 -0.07602699846029282 -0.16953900456428528 -0.7261940240859985 0.6662570238113403
          0.07468400150537491 -0.7390369772911072 0.6695119738578796 0.3816789984703064 -0.8607829809188843 0.33670899271965027
          0.5924190282821655 -0.7607700228691101 -0.26508399844169617 -0.06669499725103378 -0.9092190265655518 -0.4109410047531128
          -0.047366999089717865 -0.8278740048408508 -0.5589110255241394 0.0029810001142323017 -0.740090012550354 -0.6725010275840759
          -0.06262099742889404 -0.3121519982814789 -0.9479659795761108 -0.11959200352430344 -0.10438700020313263 -0.9873200058937073
          0.0839570015668869 -0.680683970451355 -0.7277510166168213 0.13292500376701355 -0.6644960045814514 -0.7353749871253967
          -0.1382250040769577 -0.5330280065536499 -0.8347300291061401 0.44828200340270996 -0.6750059723854065 -0.5860120058059692
          0.783083975315094 -0.6213740110397339 -0.025953000411391258 -0.3976939916610718 0.01561100035905838 -0.9173849821090698
          -0.035950999706983566 0.4213620126247406 -0.9061800241470337 0.004275000188499689 0.5493929982185364 -0.835552990436554
          -0.05130299925804138 0.09762199968099594 -0.9939000010490417 0.03222699835896492 0.26806700229644775 -0.9628610014915466
          0.05800199881196022 0.6133540272712708 -0.7876759767532349 0.051667001098394394 0.6992170214653015 -0.7130399942398071
          0.03189200162887573 0.49355798959732056 -0.8691279888153076 -0.17906300723552704 0.31001999974250793 -0.9337149858474731
          -0.2469090074300766 0.30714601278305054 -0.9190739989280701 -0.3196580111980438 0.2898299992084503 -0.9021180272102356
          -0.300135999917984 0.03900900110602379 -0.9530979990959167 -0.38043901324272156 0.009317999705672264 -0.9247589707374573
          -0.3312000036239624 -0.2835659980773926 -0.8999429941177368 -0.575173020362854 -0.5888980031013489 -0.5677809715270996
          -0.42569300532341003 -0.3409639894962311 -0.8381699919700623 -0.3043769896030426 -0.24335700273513794 -0.9209409952163696
          -0.5051450133323669 -0.5571979880332947 -0.659060001373291 -0.5153489708900452 -0.6916859745979309 -0.5059499740600586
          -0.5571150183677673 -0.7801600098609924 -0.2845590114593506 -0.12610599398612976 -0.925246000289917 -0.35779398679733276
          -0.40402498841285706 -0.8059260249137878 -0.43272098898887634 0.509136974811554 -0.6783199906349182 -0.5297750234603882
          0.5475199818611145 -0.5494419932365417 -0.631138026714325 -0.2222069948911667 -0.7312740087509155 -0.6448749899864197
          -0.25634801387786865 -0.7539229989051819 -0.6048849821090698 -0.07857000082731247 -0.8657569885253906 -0.4942589998245239
          0.2799240052700043 -0.7571039795875549 -0.590283989906311 0.14533500373363495 -0.7838630080223083 -0.6036859750747681
          0.7175570130348206 -0.6253039836883545 -0.306769996881485 0.7371670007705688 -0.5756549835205078 -0.3538439869880676
          -0.28663501143455505 -0.015915000811219215 -0.9579079747200012 -0.29911500215530396 -0.1486009955406189 -0.9425749778747559
          -0.35566699504852295 -0.1888130009174347 -0.9153419733047485 0.1794939935207367 -0.8952929973602295 0.4077160060405731
          0.006655000150203705 -0.7924559712409973 0.6098920106887817 0.5750619769096375 -0.7994629740715027 0.17367400228977203
          0.2131749987602234 -0.938401997089386 -0.2719539999961853 0.09700100123882294 -0.8608599901199341 -0.4995099902153015
          0.04012700170278549 -0.8822190165519714 -0.46912699937820435 0.2191459983587265 -0.8857750296592712 0.40911900997161865
          -0.0038640000857412815 -0.49886900186538696 0.8666689991950989 0.00812000036239624 -0.6184390187263489 0.7857909798622131
          0.34871798753738403 -0.6797540187835693 0.6452370285987854 0.21976399421691895 -0.4150570034980774 0.8828539848327637
          0.08035700023174286 -0.6408299803733826 0.7634660005569458 0.5812659859657288 -0.6436820030212402 0.49779799580574036
          0.7569299936294556 -0.6502810120582581 0.06473899632692337 -0.12358500063419342 0.07477600127458572 -0.9895129799842834
          0.01423799991607666 0.09936399757862091 -0.9949489831924438 -0.13770300149917603 0.17215000092983246 -0.9753980040550232
          0.14406099915504456 -0.8648279905319214 -0.48095598816871643 0.3348569869995117 -0.8179900050163269 -0.46772199869155884
          0.6435670256614685 -0.6983579993247986 -0.3132390081882477 0.6560829877853394 -0.006037999875843525 -0.7546650171279907
          0.8727139830589294 -0.48822999000549316 0.0014130000490695238 0.8178200125694275 -0.5500530004501343 -0.1691489964723587
          0.862142026424408 -0.48744601011276245 0.13823099434375763 0.8568410277366638 -0.47036200761795044 0.21114599704742432
          0.9865720272064209 -0.054239001125097275 0.15405499935150146 0.8707470297813416 -0.07012499868869781 0.4867059886455536
          0.9888790249824524 -0.12849800288677216 -0.07487499713897705 0.7552819848060608 -0.5661299824714661 0.3302220106124878
          0.05305200070142746 0.6464980244636536 -0.7610689997673035 0.12614700198173523 0.35313698649406433 -0.9270280003547668
          -0.11662299931049347 0.41398200392723083 -0.9027829766273499 0.11690200120210648 0.38730499148368835 -0.9145100116729736
          0.057002998888492584 0.6747400164604187 -0.735850989818573 -0.022655000910162926 0.4436179995536804 -0.8959299921989441
          -0.1404930055141449 0.40594199299812317 -0.9030349850654602 -0.16419200599193573 0.3772589862346649 -0.9114369750022888
          -0.11478400230407715 0.386339008808136 -0.9151870012283325 -0.015479999594390392 0.4896419942378998 -0.8717859983444214
          -0.14687000215053558 0.8100370168685913 -0.5676869750022888 0.16713599860668182 0.5448830127716064 -0.8216860294342041
          0.5313550233840942 0.7863540053367615 -0.3151339888572693 -0.06562700122594833 0.983253002166748 -0.17001700401306152
          -0.27522599697113037 0.4385029971599579 -0.8555499911308289 -0.2559179961681366 0.17212900519371033 -0.9512509703636169
          -0.35231199860572815 0.4358749985694885 -0.8281840085983276 -0.2412099987268448 -0.1081399992108345 -0.9644290208816528
          -0.1998019963502884 0.0261439997702837 -0.9794870018959045 -0.6512740254402161 -0.5730249881744385 -0.49747800827026367
          -0.47587600350379944 -0.394773006439209 -0.7859370112419128 -0.6881120204925537 -0.6810010075569153 -0.25047698616981506
          -0.35593199729919434 -0.18171000480651855 -0.9166759848594666 -0.6506710052490234 -0.6461390256881714 -0.3989120125770569
          -0.5758919715881348 -0.8027369976043701 -0.15479299426078796 -0.5627850294113159 -0.8001940250396729 -0.2072719931602478
          -0.6249240040779114 -0.7485460042953491 -0.22169500589370728 -0.4309990108013153 -0.8178889751434326 -0.38117799162864685
          0.7581800222396851 -0.6148040294647217 -0.21720899641513824 0.3159709870815277 -0.8501740097999573 -0.42114898562431335
          0.24318400025367737 -0.8509619832038879 -0.46553799510002136 0.47112900018692017 -0.8591489791870117 -0.19975000619888306
          -0.36360201239585876 -0.8874250054359436 -0.28332000970840454 0.04944999888539314 -0.998769998550415 -0.0035800000187009573
          -0.44896200299263 -0.8917199969291687 -0.057176001369953156 0.8623679876327515 -0.5037639737129211 -0.050443001091480255
          -0.2910830080509186 -0.18440599739551544 -0.9387570023536682 0.1713310033082962 -0.7233999967575073 0.6688330173492432
          0.849819004535675 -0.5203049778938293 0.08419899642467499 0.4917210042476654 -0.8604040145874023 -0.13384999334812164
          0.5304909944534302 -0.5739799737930298 0.6237990260124207 0.8568390011787415 -0.48696601390838623 0.16938799619674683
          0.8590490221977234 -0.4860619902610779 0.16055500507354736 0.1089790016412735 -0.36806800961494446 0.9233899712562561
          0.08331900089979172 -0.29192501306533813 0.9528049826622009 0.13676699995994568 -0.28227201104164124 0.9495350122451782
          -0.005431999918073416 -0.3124080002307892 0.9499319791793823 0.13504399359226227 -0.3487600088119507 0.9274320006370544
          0.15327200293540955 -0.36547499895095825 0.9181150197982788 0.13597999513149261 -0.43898600339889526 0.8881450295448303
          0.17848700284957886 -0.10852199792861938 0.9779390096664429 0.0702499970793724 -0.21118800342082977 0.974918007850647
          0.03000899963080883 -0.23437100648880005 0.9716839790344238 0.4127260148525238 -0.1392820030450821 0.900143027305603
          0.5415710210800171 -0.4312019944190979 0.7216410040855408 0.8466259837150574 -0.5176420211791992 0.12357699871063232
          0.7351880073547363 -0.3065980076789856 0.6045629978179932 -0.058180999010801315 0.44424301385879517 -0.8940150141716003
          0.3257319927215576 0.5349159836769104 -0.779591977596283 -0.16302600502967834 0.45565301179885864 -0.8751009702682495
          0.4339979887008667 0.8535599708557129 -0.288237988948822 0.8939869999885559 -0.4261470139026642 0.13851100206375122
          0.9152989983558655 -0.3997980058193207 0.04887399822473526 0.7970539927482605 -0.5013269782066345 0.3367129862308502
          0.917277991771698 -0.3289889991283417 0.2244260013103485 0.8245599865913391 -0.002598999999463558 0.5657680034637451
          0.5479670166969299 -0.1138089969754219 0.8287220001220703 0.6623409986495972 -0.5670049786567688 0.4897040128707886
          0.7189800143241882 -0.5420910120010376 0.4349769949913025 0.7064279913902283 0.6889669895172119 0.16212299466133118
          0.9134020209312439 -0.34546199440956116 0.21529600024223328 0.5365650057792664 -0.7335299849510193 0.41717100143432617
          0.6897469758987427 -0.5919589996337891 0.41693300008773804 0.49401599168777466 -0.7537639737129211 0.4333460032939911
          0.23836499452590942 0.2770349979400635 -0.9308239817619324 0.23325000703334808 0.28499099612236023 -0.9297170042991638
          -0.04578600078821182 0.5517910122871399 -0.8327239751815796 -0.2540209889411926 0.5744289755821228 -0.778141975402832
          -0.21563300490379333 0.7470120191574097 -0.6288689970970154 -0.2420009970664978 0.969307005405426 0.043359000235795975
          0.16305899620056152 0.9049460291862488 -0.39304399490356445 0.5477809906005859 0.8366209864616394 0.0006329999887384474
          0.2948189973831177 0.9401190280914307 -0.17105300724506378 -0.043366000056266785 0.9811609983444214 -0.1882610023021698
          -0.2876589894294739 0.34727001190185547 -0.8925560116767883 -0.22619900107383728 0.08298300206661224 -0.9705399870872498
          -0.48827099800109863 0.14157399535179138 -0.861132025718689 -0.7088680267333984 -0.29458698630332947 -0.6408780217170715
          -0.7411659955978394 -0.538034975528717 -0.4014880061149597 -0.6754900217056274 -0.7293840050697327 -0.10822500288486481
          -0.6113590002059937 -0.7122340202331543 -0.34490999579429626 -0.6783149838447571 -0.6985139846801758 -0.22796200215816498
          -0.8611230254173279 -0.4868850111961365 0.14632299542427063 -0.8591769933700562 -0.47132301330566406 0.19917400181293488
          -0.8639990091323853 -0.5009440183639526 -0.05060499906539917 -0.852154016494751 -0.4932500123977661 0.17475199699401855
          -0.5804380178451538 -0.8141250014305115 0.017079999670386314 -0.5933240056037903 -0.7990559935569763 -0.09735000133514404
          -0.6028630137443542 -0.7899060249328613 -0.11227300018072128 -0.5759649872779846 -0.7702649831771851 -0.2737810015678406
          0.8960250020027161 -0.4397050142288208 0.061636000871658325 0.6792430281639099 -0.7227060198783875 -0.12777000665664673
          0.8244709968566895 -0.5628060102462769 0.05913599953055382 0.4554530084133148 -0.8901439905166626 0.01436999998986721
          0.33873701095581055 -0.9142630100250244 0.22221800684928894 -0.32675498723983765 -0.913320004940033 0.24305999279022217
          -0.12355799973011017 -0.8945959806442261 0.4294550120830536 0.09122700244188309 -0.8733239769935608 0.47852200269699097
          -0.5976020097732544 -0.795412003993988 0.10095600038766861 -0.6614159941673279 -0.7046830058097839 0.2568100094795227
          0.21219199895858765 -0.3260290026664734 0.9212380051612854 0.29518499970436096 -0.27414700388908386 0.9152650237083435
          0.7346640229225159 -0.2665899991989136 0.6238579750061035 0.39161598682403564 -0.06723000109195709 0.9176689982414246
          0.11226700246334076 -0.3605650067329407 0.9259529709815979 0.14342300593852997 -0.39685699343681335 0.9066060185432434
          0.1609790027141571 -0.34401899576187134 0.9250609874725342 0.08469600230455399 -0.30181801319122314 0.9495959877967834
          0.09291200339794159 -0.2776010036468506 0.9561929702758789 -0.09097500145435333 -0.24887299537658691 0.9642540216445923
          -0.07700199633836746 -0.29967600107192993 0.9509289860725403 -0.000754999986384064 0.026962000876665115 0.9996359944343567
          0.04615899920463562 -0.23240000009536743 0.9715240001678467 0.034929998219013214 -0.4431670010089874 0.8957579731941223
          0.09340299665927887 0.08824600279331207 0.9917100071907043 0.240323007106781 -0.029872000217437744 0.9702330231666565
          0.5222139954566956 -0.035670001059770584 0.8520680069923401 0.44211500883102417 0.013141999952495098 0.8968619704246521
          0.5872169733047485 -0.07535699754953384 0.8059139847755432 0.3047029972076416 0.03407900035381317 0.9518380165100098
          0.6683800220489502 0.001766999950632453 0.7438179850578308 0.8359320163726807 -0.18251000344753265 0.5175979733467102
          0.09789899736642838 0.9733549952507019 0.20735299587249756 0.5552340149879456 0.06394899636507034 0.8292319774627686
          0.40611299872398376 -0.4904949963092804 0.7710300087928772 0.6427909731864929 -0.621757984161377 0.4474779963493347
          0.6012809872627258 -0.6623640060424805 0.4469180107116699 0.5556280016899109 -0.6737639904022217 0.4871549904346466
          0.5923629999160767 -0.6173970103263855 0.5176169872283936 0.5140810012817383 0.7814840078353882 0.3535580039024353
          0.8470519781112671 0.09758300334215164 0.522475004196167 0.7458459734916687 -0.45788198709487915 0.48379600048065186
          0.7897019982337952 -0.48435500264167786 0.37652501463890076 -0.2387620061635971 0.6885120272636414 -0.6847950220108032
          -0.21025100350379944 0.950007975101471 -0.23082199692726135 -0.3229230046272278 0.9118559956550598 -0.2534550130367279
          -0.21670399606227875 0.8956480026245117 -0.38839900493621826 -0.20838800072669983 0.8665260076522827 -0.4535500109195709
          0.003913000226020813 0.9998220205307007 -0.018458999693393707 0.12246900051832199 0.9355850219726562 0.33118298649787903
          0.016177000477910042 0.921409010887146 0.3882580101490021 0.4409030079841614 0.887408971786499 0.13457399606704712
          -0.05852700024843216 0.9381309747695923 -0.34129899740219116 0.35160499811172485 0.8723009824752808 -0.33980199694633484
          0.09155599772930145 0.9448419809341431 -0.31446900963783264 -0.8371139764785767 0.2439420074224472 -0.4896239936351776
          -0.9128350019454956 0.22828200459480286 -0.3385539948940277 -0.8553329706192017 0.09524299949407578 -0.5092489719390869
          -0.6962770223617554 0.5115079879760742 -0.5035439729690552 -0.8079919815063477 -0.45600101351737976 -0.3731110095977783
          -0.9114260077476501 -0.2793790102005005 -0.3020760118961334 -0.9002869725227356 -0.12519800662994385 -0.4169040024280548
          -0.8494889736175537 -0.45303699374198914 -0.2704170048236847 -0.9292529821395874 -0.33041098713874817 -0.16527700424194336
          -0.7310069799423218 -0.6098380088806152 0.3061470091342926 -0.9166920185089111 -0.09606099873781204 0.3878760039806366
          -0.8727959990501404 -0.4149709939956665 0.25695401430130005 -0.6830660104751587 -0.6796290278434753 0.267441987991333
          -0.9776039719581604 -0.1520169973373413 0.14553700387477875 0.5975610017776489 -0.7915930151939392 0.1276790052652359
          0.7752460241317749 -0.5740270018577576 0.26360300183296204 0.22945399582386017 -0.858959972858429 0.4577530026435852
          0.5966929793357849 -0.6436870098114014 0.47919100522994995 -0.204912006855011 -0.8766859769821167 0.4352380037307739
          -0.3086940050125122 -0.7498329877853394 0.5851989984512329 -0.5491399765014648 -0.7549989819526672 0.35836100578308105
          -0.25824400782585144 -0.8989499807357788 0.35383498668670654 -0.1642419993877411 -0.8581370115280151 0.4864419996738434
          -0.05807799845933914 -0.6200630068778992 0.7823989987373352 0.379597008228302 -0.30921798944473267 0.8719459772109985
          -0.612729012966156 -0.7696400284767151 0.17949000000953674 -0.6419489979743958 -0.6235910058021545 0.4461340010166168
          -0.6125670075416565 -0.6595510244369507 0.43560799956321716 -0.7417359948158264 -0.44882699847221375 0.4983789920806885
          0.021351000294089317 -0.0719359964132309 0.9971809983253479 0.04024999961256981 -0.08599299937486649 0.9954820275306702
          -0.041012998670339584 0.35089999437332153 0.935513973236084 -0.0737600028514862 0.25843000411987305 0.9632099866867065
          -0.20159399509429932 0.06332100182771683 0.9774199724197388 -0.04357599839568138 0.3089430034160614 0.950082004070282
          0.031769998371601105 -0.09247399866580963 0.9952080249786377 0.11471600085496902 0.035642001777887344 0.9927589893341064
          0.1340389996767044 -0.12755300104618073 0.9827330112457275 0.1820719987154007 -0.17746399343013763 0.9671379923820496
          0.010854999534785748 -0.22436000406742096 0.9744459986686707 -0.07485900074243546 -0.4091539978981018 0.9093890190124512
          0.07193800061941147 -0.05979200080037117 0.9956150054931641 0.1923539936542511 -0.27280598878860474 0.9426429867744446
          0.074863001704216 0.31721600890159607 0.945393979549408 0.47851499915122986 0.08680800348520279 0.8737779855728149
          0.5047789812088013 0.04571399837732315 0.8620380163192749 0.6114529967308044 0.0017170000355690718 0.7912790179252625
          0.35057100653648376 0.2602880001068115 0.8996390104293823 0.4189629852771759 0.18646299839019775 0.8886520266532898
          0.16964200139045715 0.24367199838161469 0.9549059867858887 0.23767299950122833 0.287663996219635 0.9277719855308533
          0.6339579820632935 0.050957001745700836 0.7716869711875916 0.653285026550293 -0.015173000283539295 0.7569599747657776
          0.6767510175704956 0.03799699991941452 0.7352309823036194 0.7833309769630432 -0.2541089951992035 0.5672919750213623
          0.44991999864578247 0.8894129991531372 -0.08072999864816666 0.7772520184516907 0.6254690289497375 0.06832200288772583
          0.2584809958934784 -0.31567099690437317 0.9129830002784729 0.5505970120429993 -0.4960179924964905 0.6714230179786682
          0.6803230047225952 -0.4735409915447235 0.559391975402832 0.6960930228233337 -0.47206398844718933 0.5409349799156189
          0.6564620137214661 -0.528560996055603 0.5382199883460999 0.25859400629997253 -0.4407300055027008 0.8595849871635437
          0.9081770181655884 0.11187999695539474 0.40335699915885925 0.8785139918327332 -0.010679000057280064 0.4775960147380829
          -0.08751700073480606 0.8707529902458191 -0.4838689863681793 -0.06525500118732452 0.8822190165519714 -0.46629598736763
          -0.13953599333763123 0.8232970237731934 -0.5501930117607117 -0.16764000058174133 0.7960799932479858 -0.581508994102478
          -0.09073100239038467 0.9406160116195679 -0.3271220028400421 -0.3024510145187378 0.772059977054596 -0.5589699745178223
          -0.3349280059337616 0.9417960047721863 -0.029055999591946602 -0.34770599007606506 0.9027209877967834 0.25336799025535583
          -0.21635699272155762 0.9459789991378784 -0.24148300290107727 -0.2333489954471588 0.9709410071372986 -0.05311699956655502
          -0.23409000039100647 0.9709720015525818 -0.04914800077676773 -0.16830499470233917 0.5350919961929321 0.8278579711914062
          -0.2447810024023056 0.4886539876461029 0.8374360203742981 -0.46933600306510925 0.46308600902557373 0.7518479824066162
          -0.3165050148963928 0.9465969800949097 -0.06147100031375885 -0.6174709796905518 0.680554986000061 0.3944289982318878
          -0.8213210105895996 0.5552639961242676 0.13081799447536469 0.21672500669956207 0.9760040044784546 0.021112000569701195
          -0.5051159858703613 0.799992024898529 -0.3238379955291748 0.7305809855461121 0.6510289907455444 -0.2059440016746521
          0.7906929850578308 -0.08772300183773041 0.60589599609375 -0.9753220081329346 0.17395199835300446 -0.13597199320793152
          -0.9585350155830383 0.20947100222110748 -0.1932159960269928 -0.9979010224342346 0.05513500049710274 -0.033966999500989914
          -0.9757779836654663 0.13650299608707428 -0.17094899713993073 -0.9755030274391174 0.015274999663233757 -0.21945300698280334
          -0.2306479960680008 0.89792799949646 -0.3748689889907837 -0.4766460061073303 0.8383129835128784 -0.26464900374412537
          -0.8060500025749207 0.5899199843406677 -0.04771900177001953 -0.8980429768562317 0.43695899844169617 0.05085400119423866
          -0.9129800200462341 0.37632301449775696 -0.1576319932937622 -0.8803009986877441 -0.33905699849128723 0.3318290114402771
          -0.789421021938324 0.1603340059518814 0.5925440192222595 -0.7056739926338196 0.024473000317811966 0.7081140279769897
          -0.8372629880905151 0.29450300335884094 0.46071600914001465 -0.7912179827690125 -0.04143499955534935 0.6101279854774475
          -0.7931259870529175 -0.06601999700069427 0.6054689884185791 -0.7675259709358215 -0.18439500033855438 0.6139230132102966
          -0.8503580093383789 -0.27525100111961365 0.4484739899635315 -0.9663910269737244 0.17458799481391907 0.18869799375534058
          -0.510250985622406 -0.6251749992370605 0.5905939936637878 -0.4229069948196411 -0.4799239933490753 0.7686489820480347
          -0.319815993309021 -0.41495099663734436 0.8517829775810242 -0.5640599727630615 -0.6401960253715515 0.5215219855308533
          -0.10335700213909149 -0.2241249978542328 0.9690639972686768 0.12321300059556961 -0.2654390037059784 0.9562219977378845
          0.23137199878692627 0.1277969926595688 0.9644349813461304 0.5120800137519836 0.09808800369501114 0.853318989276886
          0.5609959959983826 0.042086999863386154 0.8267480134963989 -0.6135960221290588 -0.562853991985321 0.5538010001182556
          -0.5257599949836731 -0.5322579741477966 0.6635339856147766 -0.4767949879169464 -0.3675830066204071 0.7984669804573059
          -0.5974349975585938 -0.27569299936294556 0.7530369758605957 -0.31743401288986206 0.1869949996471405 0.9296600222587585
          -0.43544599413871765 0.10209199786186218 0.8944069743156433 -0.24061599373817444 -0.5163000226020813 0.8219119906425476