<?xml version="1.0"?>
<VTKFile type="PolyData" version="0.1" byte_order="LittleEndian" header_type="UInt32" compressor="vtkZLibDataCompressor">
  <PolyData>
    <Piece NumberOfPoints="90" NumberOfVerts="0" NumberOfLines="0" NumberOfStrips="0" NumberOfPolys="176">
      <PointData Normals="Normals">
        <DataArray type="Float32" Name="Normals" NumberOfComponents="3" format="ascii" RangeMin="0.999999304421742" RangeMax="1.0000006444241467">
          -0.9254419803619385 0.2706280052661896 -0.2651729881763458 -0.7950839996337891 0.2549799978733063 -0.5502960085868835
          -0.8506789803504944 -0.5254579782485962 0.015465999953448772 -0.9573850035667419 -0.19533999264240265 0.21273499727249146
          -0.8212710022926331 0.5395410060882568 -0.18549899756908417 -0.9395779967308044 0.3344320058822632 0.07313299924135208
          -0.25486499071121216 -0.4694159924983978 -0.845395028591156 -0.7867479920387268 -0.5399370193481445 -0.2991580069065094
          -0.6157900094985962 0.4418269991874695 -0.6523740291595459 0.13547399640083313 0.08672600239515305 -0.9869779944419861
          -0.20410600304603577 -0.9277700185775757 0.3123849928379059 -0.1037210002541542 -0.9939529895782471 -0.036035001277923584
          -0.37432101368904114 -0.7668840289115906 0.5213189721107483 -0.8729609847068787 -0.11273500323295593 0.4745829999446869
          -0.7084730267524719 0.685778021812439 0.16665500402450562 -0.658253014087677 0.48314398527145386 -0.5773000121116638
          -0.951291024684906 0.26214599609375 0.1622530072927475 -0.7553939819335938 0.6506519913673401 -0.07766400277614594
          -0.7741289734840393 0.40101200342178345 0.4898099899291992 0.3670929968357086 -0.573976993560791 -0.7319790124893188
          -0.13112999498844147 0.2720859944820404 -0.9532960057258606 0.48833099007606506 -0.30614200234413147 -0.8171960115432739
          0.2479570060968399 -0.19310800731182098 -0.9493290185928345 -0.019324999302625656 -0.9553430080413818 0.29486700892448425
          0.30875998735427856 -0.8938999772071838 -0.32497599720954895 -0.4951469898223877 -0.7580379843711853 0.4245089888572693
          -0.676226019859314 -0.2863439917564392 0.67876797914505 -0.36480599641799927 -0.5172079801559448 0.7742170095443726
          -0.8430110216140747 0.4833329916000366 0.23605500161647797 -0.7302449941635132 0.42686301469802856 0.5334129929542542
          -0.7891579866409302 0.4827350080013275 0.3797309994697571 -0.9766200184822083 0.1725340038537979 -0.1282380074262619
          -0.44036999344825745 0.5522900223731995 -0.7078490257263184 -0.9324430227279663 -0.24684900045394897 0.2638480067253113
          -0.6260700225830078 0.21517899632453918 0.7494890093803406 -0.38580000400543213 0.502020001411438 -0.7740370035171509
          0.025627000257372856 -0.06944499909877777 -0.9972559809684753 -0.03976999968290329 -0.9219170212745667 -0.38533899188041687
          0.49180901050567627 -0.39572200179100037 -0.775583028793335 0.3977789878845215 -0.40670499205589294 -0.8224130272865295
          0.6201429963111877 -0.3685480058193207 -0.6925269961357117 -0.22233599424362183 -0.7345280051231384 0.6411200165748596
          -0.3393099904060364 -0.9209010004997253 0.19186200201511383 -0.42006999254226685 -0.08632999658584595 0.9033759832382202
          -0.3109000027179718 -0.2540439963340759 0.9158620238304138 -0.017281999811530113 -0.1900230050086975 0.9816280007362366
          -0.9052209854125977 -0.11689700186252594 0.40854600071907043 -0.8667870163917542 -0.13091899454593658 0.48118698596954346
          -0.6879569888114929 0.26109200716018677 0.6771600246429443 -0.987205982208252 0.07736799865961075 0.1394210010766983
          -0.8407469987869263 0.48502999544143677 -0.2406039983034134 -0.9317359924316406 0.1784439980983734 0.3162679970264435
          -0.28589099645614624 0.898514986038208 -0.3330709934234619 -0.04872699826955795 0.6925539970397949 -0.7197189927101135
          -0.1125980019569397 0.17965300381183624 -0.9772650003433228 0.4029180109500885 0.2966809868812561 -0.8658159971237183
          0.6386889815330505 -0.2752610146999359 -0.7185459733009338 0.6506819725036621 -0.5594149827957153 -0.5134850144386292
          0.1436150074005127 -0.952239990234375 -0.2694680094718933 0.8171939849853516 -0.2541370093822479 -0.5173100233078003
          0.7630019783973694 -0.47407999634742737 -0.4394040107727051 0.964963972568512 -0.2475070059299469 -0.08709000051021576
          0.6282740235328674 -0.7765380144119263 0.047543998807668686 0.6500459909439087 -0.3715449869632721 0.6628680229187012
          -0.09808000177145004 -0.2501400113105774 0.9632290005683899 -0.048434000462293625 -0.09585999697446823 0.9942160248756409
          0.7708100080490112 0.004089000169187784 0.6370519995689392 0.444364994764328 -0.1542769968509674 0.8824620246887207
          -0.8399159908294678 -0.03594699874520302 0.5415239930152893 -0.7555919885635376 0.05571100115776062 0.6526700258255005
          -0.549232006072998 0.34125199913978577 0.7628179788589478 -0.36171799898147583 0.303741991519928 0.8814200162887573
          -0.8223029971122742 0.2185239940881729 0.5254189968109131 0.1785919964313507 -0.02508299984037876 0.9836030006408691
          -0.3749290108680725 0.9225879907608032 0.09088099747896194 -0.36815500259399414 0.6137030124664307 0.6984480023384094
          0.43027299642562866 0.8139129877090454 -0.3903979957103729 0.14674699306488037 0.9842810034751892 -0.09827099740505219
          0.918267011642456 0.2718510031700134 -0.28789401054382324 0.9283879995346069 -0.2905929982662201 -0.23162800073623657
          0.9888550043106079 -0.109436996281147 -0.100941002368927 0.9469040036201477 -0.31170299649238586 0.07883299887180328
          0.9695749878883362 0.003742000088095665 0.2447649985551834 0.5323929786682129 -0.21894699335098267 0.81769198179245
          0.8163229823112488 -0.20896799862384796 0.5384690165519714 -0.4943099915981293 0.2888509929180145 0.8198919892311096
          0.12730099260807037 0.3922559916973114 0.9110050201416016 0.5763409733772278 0.24879300594329834 0.7784169912338257
          0.09285300225019455 0.8449239730834961 0.526764988899231 0.6678140163421631 0.6567299962043762 0.3503279983997345
          <InformationKey name="L2_NORM_RANGE" location="vtkDataArray" length="2">
            <Value index="0">
              0.99999930442
            </Value>
            <Value index="1">
              1.0000006444
            </Value>
          </InformationKey>
        </DataArray>
      </PointData>
      <CellData>
      </CellData>
      <Points>
        <DataArray type="Float32" Name="Points" NumberOfComponents="3" format="ascii" RangeMin="0.006235086017268807" RangeMax="0.031231356654429304">
          -0.013660999946296215 -0.025862999260425568 -0.004056999925523996 -0.01182200014591217 -0.023895999416708946 -0.008425000123679638
          -0.013802999630570412 -0.02690800093114376 -0.003992999903857708 -0.013904999941587448 -0.02604999952018261 -0.0027409999165683985
          -0.01202400028705597 -0.02247699908912182 -0.0034779999405145645 -0.013423999771475792 -0.022140000015497208 -0.0008800000068731606
          -0.011909999884665012 -0.027009999379515648 -0.009026999585330486 -0.012682000175118446 -0.027713999152183533 -0.006819000001996756
          -0.01043500006198883 -0.020082000643014908 -0.0074880002066493034 -0.009267999790608883 -0.02270199917256832 -0.008322999812662601
          -0.011745000258088112 -0.027668999508023262 -0.0024850000627338886 -0.010397999547421932 -0.028566999360919 -0.006014999933540821
          -0.01169699989259243 -0.02626500092446804 0.0003279999946244061 -0.012616000138223171 -0.024167999625205994 0.0009110000100918114
          -0.011637000367045403 -0.019666999578475952 0.000295000005280599 -0.007323000114411116 -0.01496999990195036 -0.006504999939352274
          -0.006878000218421221 -0.014403999783098698 -0.004275000188499689 -0.00863999966531992 -0.017906999215483665 -0.0016749999485909939
          -0.011125000193715096 -0.021379999816417694 0.0022189998999238014 -0.009081000462174416 -0.027998000383377075 -0.007584000006318092
          -0.004687999840825796 -0.014503000304102898 -0.0067449999041855335 -0.0016199999954551458 -0.024553999304771423 -0.0038620000705122948
          -0.002948000095784664 -0.0164170004427433 -0.0069240001030266285 -0.005247000139206648 -0.02721400000154972 -0.0029279999434947968
          -0.004244000185281038 -0.027458999305963516 -0.004370999988168478 -0.0034050000831484795 -0.024908000603318214 0.0032430000137537718
          -0.011494000442326069 -0.024013999849557877 0.00317499996162951 -0.0035570000763982534 -0.022498000413179398 0.005508000031113625
          -0.006393000017851591 -0.015370000153779984 0.0004830000107176602 -0.006390000227838755 -0.015809999778866768 0.001281999982893467
          -0.003837999887764454 -0.01638299971818924 0.004267000127583742 -0.007102999836206436 -0.013523000292479992 -0.0048340000212192535
          -0.00483699981123209 -0.012741000391542912 -0.00583800021559 -0.006147000007331371 -0.012992000207304955 0.0006099999882280827
          -0.010002999566495419 -0.021570999175310135 0.004732999950647354 -0.002894999925047159 -0.009789000265300274 -0.005437000188976526
          0.0004769999941345304 -0.013368000276386738 -0.006868000142276287 -0.0022140000946819782 -0.027799999341368675 -0.0023980000987648964
          0.0014779999619349837 -0.025645999237895012 -0.0018729999428614974 0.003186000045388937 -0.014688000082969666 -0.0059710000641644
          0.0030670000705868006 -0.016721000894904137 -0.00496299983933568 0.0007159999804571271 -0.029113000258803368 0.006302999798208475
          0.0007019999902695417 -0.0299529992043972 0.004556000232696533 -0.005615000147372484 -0.019155999645590782 0.006845999974757433
          -0.0027540000155568123 -0.020648999139666557 0.0064650001004338264 0.00013800000306218863 -0.027014000341296196 0.007156999781727791
          -0.004951000213623047 -0.014096000231802464 0.0024470000062137842 -0.003800000064074993 -0.015527999959886074 0.004280999768525362
          -0.004373000003397465 -0.017152000218629837 0.007763000205159187 -0.003355999942868948 -0.014774000272154808 0.005632000043988228
          -0.007375000044703484 -0.012288999743759632 -0.0031010000966489315 -0.006893999874591827 -0.011254999786615372 0.0015429999912157655
          -0.00016799999866634607 -0.007025000173598528 -0.002638000063598156 0.002452000044286251 -0.008688000030815601 -0.006459000054746866
          0.0023930000606924295 -0.010394000448286533 -0.007203000131994486 0.004048999864608049 -0.009965999983251095 -0.007044999860227108
          0.005026999861001968 -0.012240000069141388 -0.006566000171005726 0.0013770000077784061 -0.028922999277710915 0.00039900001138448715
          0.00048600000445730984 -0.029865000396966934 0.0012489999644458294 0.004406000021845102 -0.019733000546693802 -0.002237000036984682
          0.004846999887377024 -0.014446999877691269 -0.004352999851107597 0.005129000172019005 -0.016008000820875168 -0.0012410000199452043
          0.0026549999602138996 -0.02919900044798851 0.0035180000122636557 0.0026390000712126493 -0.028099000453948975 0.005934999790042639
          -0.0017010000301524997 -0.018797000870108604 0.007321999873965979 -0.00022499999613501132 -0.021340999752283096 0.0074280002154409885
          0.002701000077649951 -0.020423000678420067 0.0063240001909434795 0.001680999994277954 -0.02141599915921688 0.006889999844133854
          -0.005423999857157469 -0.012075000442564487 0.00445799995213747 -0.0033360000234097242 -0.013120999559760094 0.006533000152558088
          -0.0026829999405890703 -0.014073999598622322 0.007180999964475632 -0.0016629999736323953 -0.013426999561488628 0.007557999808341265
          -0.0032500000670552254 -0.0139340003952384 0.006653000134974718 0.0012649999698624015 -0.015035999938845634 0.008488000370562077
          0.00016199999663513154 -0.006194000132381916 0.0006960000027902424 -0.0012509999796748161 -0.009224999696016312 0.005493000149726868
          0.004048999864608049 -0.007242999970912933 -0.0036639999598264694 0.003329999977722764 -0.005896000191569328 -0.00008600000001024455
          0.006672999821603298 -0.010579000227153301 -0.0037150001153349876 0.006641999818384647 -0.011714999563992023 -0.0033259999472647905
          0.005578000098466873 -0.01951799914240837 0.00018400000408291817 0.004435000009834766 -0.02633100003004074 0.0033100000582635403
          0.006810000166296959 -0.011927000246942043 0.0035250000655651093 0.002094999887049198 -0.019074000418186188 0.0073079997673630714
          0.005528000183403492 -0.01498399954289198 0.005417999811470509 -0.0024790000170469284 -0.013306000269949436 0.0070870001800358295
          0.0009319999953731894 -0.013539999723434448 0.008326999843120575 0.004650999791920185 -0.011556999757885933 0.0056859999895095825
          0.004035999998450279 -0.006438000127673149 0.0029980000108480453 0.005030000116676092 -0.006711000110954046 0.0027570000384002924
          <InformationKey name="L2_NORM_RANGE" location="vtkDataArray" length="2">
            <Value index="0">
              0.0062350860173
            </Value>
            <Value index="1">
              0.031231356654
            </Value>
          </InformationKey>
        </DataArray>
      </Points>
      <Verts>
        <DataArray type="Int64" Name="connectivity" format="ascii" RangeMin="1e+299" RangeMax="-1e+299">
        </DataArray>
        <DataArray type="Int64" Name="offsets" format="ascii" RangeMin="1e+299" RangeMax="-1e+299">
        </DataArray>
      </Verts>
      <Lines>
        <DataArray type="Int64" Name="connectivity" format="ascii" RangeMin="1e+299" RangeMax="-1e+299">
        </DataArray>
        <DataArray type="Int64" Name="offsets" format="ascii" RangeMin="1e+299" RangeMax="-1e+299">
        </DataArray>
      </Lines>
      <Strips>
        <DataArray type="Int64" Name="connectivity" format="ascii" RangeMin="1e+299" RangeMax="-1e+299">
        </DataArray>
        <DataArray type="Int64" Name="offsets" format="ascii" RangeMin="1e+299" RangeMax="-1e+299">
        </DataArray>
      </Strips>
      <Polys>
        <DataArray type="Int32" Name="connectivity" format="ascii" RangeMin="0" RangeMax="89">
          0 1 2 3 0 2
          0 4 1 4 0 5
          3 5 0 6 7 1
          2 1 7 8 1 4
          6 1 9 9 1 8
          10 2 11 7 11 2
          10 12 2 12 3 2
          13 5 3 3 12 13
          14 4 5 8 4 15
          15 4 16 17 16 4
          17 4 14 18 14 5
          18 5 13 7 6 11
          19 11 6 19 6 9
          9 8 15 9 15 20
          21 19 9 9 20 22
          9 22 21 10 11 23
          10 23 12 24 23 11
          11 19 24 12 23 25
          12 26 13 12 27 26
          25 27 12 18 13 26
          28 17 14 29 28 14
          14 18 30 29 14 30
          16 31 15 15 31 32
          15 32 20 17 28 16
          33 16 28 31 16 33
          34 18 26 30 18 34
          19 21 24 35 20 32
          20 35 36 36 22 20
          21 37 24 22 38 21
          38 37 21 39 22 36
          39 40 22 22 40 38
          23 24 37 37 25 23
          41 27 25 42 41 25
          37 42 25 27 34 26
          43 27 44 27 43 34
          44 27 45 41 45 27
          33 28 46 46 28 29
          47 29 30 46 29 47
          34 43 30 48 30 43
          49 30 48 30 49 47
          31 33 50 50 32 31
          50 35 32 33 51 50
          33 46 51 35 52 53
          50 52 35 53 54 35
          36 35 54 54 55 36
          55 56 36 36 56 39
          37 38 57 37 57 58
          58 42 37 59 57 38
          40 59 38 39 60 40
          60 39 56 61 59 40
          61 40 60 42 62 41
          62 63 41 45 41 63
          58 62 42 43 64 48
          44 64 43 64 44 65
          45 65 44 66 45 63
          66 67 45 67 65 45
          68 51 46 47 68 46
          49 69 47 69 68 47
          70 48 71 49 48 72
          48 70 72 48 73 71
          48 64 73 49 72 69
          74 52 50 51 74 50
          75 74 51 75 51 68
          52 76 53 52 74 77
          52 77 76 55 53 76
          54 53 55 56 55 78
          76 78 55 60 56 79
          79 56 78 80 57 59
          81 57 80 81 62 57
          57 62 58 59 61 80
          79 61 60 79 82 61
          80 61 66 83 66 61
          83 61 84 82 84 61
          62 81 63 63 81 66
          73 64 83 83 64 65
          67 83 65 81 80 66
          66 83 67 69 75 68
          72 85 69 85 75 69
          70 71 85 70 85 72
          86 71 73 71 86 75
          85 71 75 73 87 86
          73 84 87 83 84 73
          77 74 88 74 75 88
          88 75 86 76 77 89
          89 78 76 88 89 77
          89 82 78 79 78 82
          87 82 89 84 82 87
          86 87 89 89 88 86
        </DataArray>
        <DataArray type="Int32" Name="offsets" format="ascii" RangeMin="3" RangeMax="528">
          3 6 9 12 15 18
          21 24 27 30 33 36
          39 42 45 48 51 54
          57 60 63 66 69 72
          75 78 81 84 87 90
          93 96 99 102 105 108
          111 114 117 120 123 126
          129 132 135 138 141 144
          147 150 153 156 159 162
          165 168 171 174 177 180
          183 186 189 192 195 198
          201 204 207 210 213 216
          219 222 225 228 231 234
          237 240 243 246 249 252
          255 258 261 264 267 270
          273 276 279 282 285 288
          291 294 297 300 303 306
          309 312 315 318 321 324
          327 330 333 336 339 342
          345 348 351 354 357 360
          363 366 369 372 375 378
          381 384 387 390 393 396
          399 402 405 408 411 414
          417 420 423 426 429 432
          435 438 441 444 447 450
          453 456 459 462 465 468
          471 474 477 480 483 486
          489 492 495 498 501 504
          507 510 513 516 519 522
          525 528
        </DataArray>
      </Polys>
    </Piece>
  </PolyData>
</VTKFile>
