<?xml version="1.0"?>
<VTKFile type="PolyData" version="0.1" byte_order="LittleEndian" header_type="UInt32" compressor="vtkZLibDataCompressor">
  <PolyData>
    <Piece NumberOfPoints="310" NumberOfVerts="0" NumberOfLines="0" NumberOfStrips="0" NumberOfPolys="360">
      <PointData Normals="Normals">
        <DataArray type="Float32" Name="Normals" NumberOfComponents="3" format="ascii" RangeMin="0.9999992855712249" RangeMax="1.0000006910555472">
          0.6403899788856506 -0.7680439949035645 0.002839999971911311 0.4125860035419464 -0.9106150269508362 -0.02350199967622757
          -0.7621430158615112 -0.6405619978904724 0.09390600025653839 -0.7659680247306824 -0.6428760290145874 0.0021009999327361584
          -0.2338400036096573 -0.9722689986228943 0.0033740000799298286 0.5425779819488525 0.8399999737739563 -0.002836999949067831
          0.3031019866466522 0.9525660276412964 -0.02732899971306324 -0.7614650130271912 -0.6416559815406799 -0.09191200137138367
          0.4167810082435608 -0.9085310101509094 0.029419999569654465 0.29868701100349426 0.9541109800338745 0.021409999579191208
          -0.6914569735527039 -0.6351169943809509 0.34425801038742065 0.16924700140953064 -0.9855740070343018 0.00016999999934341758
          -0.5374360084533691 -0.5880749821662903 0.6044260263442993 0.06020300090312958 0.9981539845466614 -0.00802099984139204
          -0.8335829973220825 0.5444700121879578 0.09323100000619888 -0.8382629752159119 0.5452619791030884 -0.0020940001122653484
          -0.7615029811859131 0.5501390099525452 0.34272500872612 -0.8341230154037476 0.5432990193367004 -0.09521599858999252
          -0.350955992937088 0.936385989189148 -0.0033650000113993883 -0.6028860211372375 0.5216429829597473 0.6036700010299683
          -0.6891649961471558 -0.639011025428772 -0.34163698554039 -0.7633110284805298 0.5459960103034973 -0.3453179895877838
          -0.5349599719047546 -0.5918880105018616 -0.6028990149497986 0.18156200647354126 -0.9833260178565979 0.010288000106811523
          0.04769099876284599 0.9988589882850647 -0.0024389999452978373 -0.6048799753189087 0.5175619721412659 -0.6051849722862244
          -0.5364459753036499 -0.5827640295028687 0.6104199886322021 -0.7323049902915955 -0.5408589839935303 0.41376399993896484
          -0.6520829796791077 -0.5981060266494751 0.46589401364326477 0.7182469964027405 -0.651839017868042 -0.243367999792099
          -0.34088000655174255 -0.6638720035552979 0.6656389832496643 0.6657879948616028 0.709214985370636 -0.2318200021982193
          -0.6032329797744751 0.5124189853668213 0.6111760139465332 -0.7922629714012146 0.4476209878921509 0.4146740138530731
          -0.7161579728126526 0.5229009985923767 0.46226900815963745 -0.3789919912815094 0.6245819926261902 0.6828340291976929
          -0.53643399477005 -0.582781970500946 -0.6104130148887634 -0.6032329797744751 0.5124009847640991 -0.6111909747123718
          -0.7323070168495178 -0.5408610105514526 -0.4137589931488037 -0.6476809978485107 -0.6064140200614929 -0.4612709879875183
          -0.30000001192092896 -0.6669970154762268 -0.6819940209388733 0.7468010187149048 -0.6228359937667847 0.23316000401973724
          0.6338890194892883 0.7345799803733826 0.2420250028371811 -0.7922670245170593 0.4476169943809509 -0.4146699905395508
          -0.7195460200309753 0.5141000151634216 -0.466856986284256 -0.419189989566803 0.6165210008621216 -0.6664699912071228
          0.7422279715538025 -0.557712972164154 -0.37155601382255554 -0.24650099873542786 -0.7100830078125 0.6595600247383118
          0.43071499466896057 0.7433170080184937 -0.5118240118026733 -0.6039450168609619 0.6052929759025574 0.5185279846191406
          -0.525950014591217 -0.6749489903450012 -0.5175129771232605 0.517786979675293 -0.6846989989280701 0.5129169821739197
          -0.33103999495506287 0.6739550232887268 -0.6604520082473755 0.669202983379364 0.6441249847412109 0.37049999833106995
          0.6262339949607849 -0.5365599989891052 -0.5656279921531677 -0.21059100329875946 -0.7886090278625488 0.5777080059051514
          0.265082985162735 0.6624690294265747 -0.7006180286407471 -0.6298869848251343 0.6624659895896912 0.40544000267982483
          -0.5448449850082397 -0.7346810102462769 -0.404213011264801 0.3437519967556 -0.6242579817771912 0.701524019241333
          -0.30489200353622437 0.7563409805297852 -0.5787820219993591 0.5564780235290527 0.6094629764556885 0.5647010207176208
          -0.2511749863624573 -0.5255780220031738 -0.8128219842910767 -0.3741529881954193 -0.6824520230293274 0.6279079914093018
          -0.2756020128726959 0.5772920250892639 -0.768621027469635 -0.48927998542785645 0.5870670080184937 0.6449480056762695
          -0.41431498527526855 -0.6430180072784424 -0.6441050171852112 -0.20306099951267242 -0.6050300002098083 0.7698730230331421
          -0.45426100492477417 0.6310039758682251 -0.6288729906082153 -0.3136320114135742 0.4926680028438568 0.8117349743843079
          -0.08307900279760361 -0.7601220011711121 -0.6444479823112488 -0.09836400300264359 -0.8676459789276123 -0.48735499382019043
          -0.3935210108757019 -0.9059140086174011 0.1563979983329773 -0.25741198658943176 -0.07114599645137787 -0.9636790156364441
          -0.13903899490833282 -0.6703959703445435 -0.7288600206375122 -0.23257799446582794 0.16650600731372833 -0.9582189917564392
          -0.3677290081977844 -0.7590280175209045 0.5372629761695862 -0.03328400105237961 -0.5058919787406921 0.8619539737701416
          -0.13896800577640533 0.45664098858833313 0.8787299990653992 -0.20462100207805634 0.8734830021858215 -0.44176599383354187
          -0.1170630007982254 0.8473280072212219 -0.5180079936981201 -0.5428469777107239 0.8188580274581909 0.18651700019836426
          -0.15361900627613068 0.7605940103530884 -0.6307910084724426 -0.4969100058078766 0.6624490022659302 0.5605720281600952
          -0.4392940104007721 -0.8791459798812866 -0.1847269982099533 -0.08198300004005432 -0.47136399149894714 -0.8781200051307678
          -0.4126890003681183 -0.7187060117721558 -0.5595970153808594 -0.09488499909639359 0.49678298830986023 -0.862671971321106
          -0.0963520035147667 -0.890874981880188 0.44391199946403503 -0.01255900040268898 -0.8541290163993835 0.5199099779129028
          -0.05945799872279167 -0.772292971611023 0.6324779987335205 -0.21053999662399292 -0.19197000563144684 0.9585509896278381
          -0.2642880082130432 0.040950000286102295 0.9635739922523499 -0.5007349848747253 0.8509960174560547 -0.1583389937877655
          -0.45721301436424255 0.707880973815918 -0.5383880138397217 -0.17551900446414948 0.745701014995575 0.6427469849586487
          -0.20377899706363678 0.8502709865570068 0.4852980077266693 -0.22012299299240112 0.6499760150909424 0.7273769974708557
          0.41606301069259644 -0.8602120280265808 0.2948330044746399 -0.17133000493049622 -0.8510029911994934 0.4964280128479004
          0.2644970118999481 -0.9118630290031433 0.3139219880104065 -0.33427101373672485 -0.11388300359249115 -0.935571014881134
          -0.21213099360466003 -0.6927369832992554 -0.689287006855011 -0.3465670049190521 0.008608000352978706 -0.9379860162734985
          0.15152199566364288 -0.9396849870681763 0.30664899945259094 -0.29001501202583313 0.6546609997749329 -0.6980760097503662
          -0.49618199467658997 -0.6875180006027222 0.530210018157959 -0.5759159922599792 0.6214699745178223 0.5311279892921448
          -0.27152198553085327 0.8234779834747314 0.49815699458122253 0.2840079963207245 0.9033820033073425 0.32131099700927734
          0.1765509992837906 0.9123089909553528 0.36948999762535095 0.07307399809360504 0.9239839911460876 0.37538400292396545
          -0.16914699971675873 -0.8512120246887207 -0.4968169927597046 -0.49617698788642883 -0.6875259876251221 -0.5302050113677979
          -0.5759199857711792 0.6214609742164612 -0.5311329960823059 0.39243799448013306 -0.8625850081443787 -0.3192789852619171
          0.286994993686676 -0.8846250176429749 -0.3675220012664795 -0.207738995552063 -0.683696985244751 0.6995739936828613
          -0.34302300214767456 -0.0489329993724823 0.9380519986152649 0.18571799993515015 -0.9089570045471191 -0.3732379972934723
          -0.34583500027656555 0.07412099838256836 0.9353629946708679 -0.2954840064048767 0.6630669832229614 0.6877729892730713
          -0.27364200353622437 0.8230350017547607 -0.49772799015045166 0.30777299404144287 0.9039729833602905 -0.2968299984931946
          0.15087799727916718 0.9367020130157471 -0.3159500062465668 0.0353659987449646 0.9504470229148865 -0.30886900424957275
          0.4491319954395294 -0.2232860028743744 0.8651149868965149 0.47586700320243835 -0.6424980163574219 0.6006219983100891
          0.2925879955291748 -0.2800390124320984 0.9143139719963074 -0.10367699712514877 -0.5815730094909668 0.8068609833717346
          -0.48579201102256775 -0.20637699961662292 -0.849361002445221 -0.3383350074291229 -0.7386159896850586 -0.5830739736557007
          -0.5045509934425354 0.09933499991893768 -0.857649028301239 -0.062212999910116196 -0.9977669715881348 -0.024286000058054924
          -0.42084500193595886 0.7105249762535095 -0.5639539957046509 -0.26914599537849426 0.9439250230789185 0.19122299551963806
          -0.6542739868164062 -0.7515910267829895 0.08388300240039825 -0.7405490279197693 0.6665419936180115 0.085487000644207
          0.37717801332473755 0.7209929823875427 0.581296980381012 0.41074201464653015 0.2922140061855316 0.8636559844017029
          0.2626209855079651 0.2666490077972412 0.9273229837417603 -0.23983000218868256 0.3861689865589142 0.8907049894332886
          0.4625450074672699 -0.6709439754486084 -0.5795570015907288 0.44354701042175293 -0.2418150007724762 -0.8630130290985107
          -0.6542630195617676 -0.751600980758667 -0.08388300240039825 -0.740556001663208 0.6665350198745728 -0.08548799902200699
          0.393900990486145 0.6943110227584839 -0.6023070216178894 0.2934510111808777 -0.23439499735832214 -0.9267929792404175
          -0.19097700715065002 -0.4135870039463043 -0.890209972858429 -0.3308199942111969 -0.7553349733352661 0.5657100081443787
          -0.48875701427459717 -0.15808500349521637 0.8579779863357544 -0.15184499323368073 -0.970166027545929 -0.18900099396705627
          -0.5075269937515259 0.1476150006055832 0.8488969802856445 -0.42625901103019714 0.6930599808692932 0.5813530087471008
          -0.1838179975748062 0.9827179908752441 0.021820999681949615 0.4185599982738495 0.2744779884815216 -0.8657190203666687
          0.25617098808288574 0.3118639886379242 -0.9149410128593445 -0.1739100068807602 0.5633209943771362 -0.8077279925346375
          0.7408350110054016 -0.6686760187149048 -0.06352899968624115 -0.6200889945030212 -0.7615529894828796 0.18848299980163574
          0.6542649865150452 0.7537299990653992 -0.06188400089740753 0.5571370124816895 -0.8134499788284302 0.16702400147914886
          -0.6268010139465332 -0.778194010257721 0.03917299956083298 -0.7684109807014465 0.5899950265884399 0.24789200723171234
          -0.35197699069976807 -0.21465499699115753 -0.911063015460968 -0.3819670081138611 0.2011609971523285 -0.9020180106163025
          -0.15185299515724182 -0.1826920062303543 -0.9713720083236694 -0.24529199302196503 -0.7805320024490356 -0.5749800205230713
          0.03687899932265282 -0.9981030225753784 0.04929199814796448 0.1690250039100647 -0.985427975654602 -0.019032999873161316
          0.7256649732589722 -0.5117980241775513 0.45986199378967285 -0.37279999256134033 0.749114990234375 -0.5475829839706421
          -0.1786070019006729 0.19309000670909882 -0.964788019657135 -0.1186859980225563 0.9917470216751099 0.048489999026060104
          -0.024816999211907387 0.9993879795074463 -0.024653000757098198 0.3273859918117523 0.8346660137176514 0.4428899884223938
          0.62602299451828 0.6345739960670471 0.45322299003601074 -0.7078530192375183 0.6803320050239563 0.18998299539089203
          -0.6200969815254211 -0.7615450024604797 -0.18848900496959686 0.7408519983291626 -0.6686570048332214 0.06352700293064117
          0.6542450189590454 0.7537469863891602 0.06188099831342697 -0.7078459858894348 0.680338978767395 -0.18998199701309204
          -0.6913449764251709 -0.6791179776191711 -0.24665899574756622 0.42682600021362305 -0.7896140217781067 -0.44082701206207275
          -0.7166550159454346 0.6962260007858276 -0.0409340001642704 -0.35458698868751526 -0.2443629950284958 0.9025269746780396
          -0.27838200330734253 -0.7878249883651733 0.5493950247764587 -0.1536879986524582 -0.21182399988174438 0.9651479721069336
          0.0035639998968690634 -0.9989330172538757 -0.04604699835181236 0.0975319966673851 -0.9948639869689941 0.02707899920642376
          -0.3757529854774475 0.17199300229549408 0.9106199741363525 0.6987540125846863 -0.5548660159111023 -0.45151498913764954
          -0.17322400212287903 0.16438999772071838 0.9710659980773926 -0.3390510082244873 0.7459800243377686 0.573199987411499
          -0.08549100160598755 0.9949929714202881 -0.05177199840545654 0.0473329983651638 0.9987409710884094 0.016611000522971153
          0.4538539946079254 0.8748509883880615 -0.16926699876785278 0.6579980254173279 0.5950539708137512 -0.461463987827301
          0.5386229753494263 -0.714572012424469 -0.4463990032672882 -0.5876839756965637 -0.7466139793395996 0.3117600083351135
          0.44775500893592834 0.7755810022354126 -0.4449610114097595 -0.6738010048866272 0.6692289710044861 0.31324899196624756
          0.7037889957427979 -0.6456949710845947 0.29624098539352417 0.6201109886169434 0.7256600260734558 0.2981269955635071
          0.5556700229644775 -0.5926529765129089 0.5830889940261841 -0.7153289914131165 -0.6986280083656311 0.014950999990105629
          -0.8501719832420349 0.5122510194778442 -0.12168200314044952 0.3954940140247345 0.7510520219802856 0.5286830067634583
          0.033934999257326126 -0.6890580058097839 -0.7239109873771667 0.016134999692440033 0.5848810076713562 -0.810958981513977
          0.09766799956560135 -0.9789050221443176 -0.1794620007276535 0.36149901151657104 -0.9319120049476624 -0.02928899973630905
          0.8156579732894897 -0.4776870012283325 0.3263689875602722 0.7765669822692871 -0.5821459889411926 0.24093499779701233
          0.738614022731781 0.5924969911575317 0.32155299186706543 -0.034894999116659164 0.894976019859314 -0.4447470009326935
          0.27428799867630005 0.9178760051727295 -0.28682801127433777 0.7947070002555847 0.5945780277252197 0.12213999778032303
          -0.5877140164375305 -0.7465860247612 -0.3117719888687134 0.5385990142822266 -0.7145950198173523 0.4463909864425659
          -0.673820972442627 0.6692079901695251 -0.31325098872184753 0.4477129876613617 0.7756059765815735 0.44495999813079834
          -0.7818710207939148 -0.6111779808998108 0.12304700165987015 0.4840199947357178 -0.6987379789352417 -0.5267720222473145
          0.703790009021759 -0.6456940174102783 -0.29624098539352417 -0.7947970032691956 0.6066570281982422 -0.016276000067591667
          0.6201149821281433 0.7256559729576111 -0.29812800884246826 0.4793910086154938 0.6544070243835449 -0.5847529768943787
          0.08721499890089035 -0.5771080255508423 0.8119969964027405 0.0745759978890419 -0.8916239738464355 0.4465929865837097
          0.3840309977531433 -0.8770340085029602 0.28867200016975403 -0.05058800056576729 0.6895419955253601 0.7224770188331604
          0.8051679730415344 -0.4992600083351135 -0.32006800174713135 0.860916018486023 -0.49416598677635193 -0.12092500180006027
          0.7516459822654724 0.5723369717597961 -0.32780900597572327 -0.022760000079870224 0.9839349985122681 0.17706799507141113
          0.24500299990177155 0.9691460132598877 0.027022000402212143 0.700069010257721 0.6716279983520508 -0.24252699315547943
          -0.09562499821186066 -0.907597005367279 -0.40880700945854187 -0.5865039825439453 -0.7466790080070496 0.3138209879398346
          -0.1787859946489334 0.9004470109939575 -0.39652198553085327 -0.6726419925689697 0.669409990310669 0.31534600257873535
          0.7738239765167236 -0.43147099018096924 0.46371299028396606 -0.36190998554229736 -0.7780240178108215 -0.5135170221328735
          0.5749210119247437 0.7596759796142578 0.30390501022338867 -0.6170740127563477 0.5123590230941772 -0.5972509980201721
          -0.10738100111484528 -0.8194220066070557 -0.5630429983139038 0.7723069787025452 -0.50102299451828 0.39053499698638916
          -0.16916899383068085 0.8215320110321045 -0.5444880127906799 0.719651997089386 0.5572299957275391 0.4142409861087799
          -0.5865079760551453 -0.7466760277748108 -0.3138189911842346 -0.06738699972629547 -0.9145560264587402 0.39880600571632385
          -0.6726809740066528 0.6693649888038635 -0.3153589963912964 -0.20596499741077423 0.8901280164718628 0.40651100873947144
          -0.5503000020980835 -0.5820559859275818 0.5986490249633789 0.6629589796066284 -0.6849499940872192 -0.3022080063819885
          -0.45390498638153076 0.729390025138855 0.5118209719657898 0.7158470153808594 0.5210189819335938 -0.4648689925670624
          0.7821429967880249 -0.46670299768447876 -0.4128449857234955 -0.06776899844408035 -0.8346189856529236 0.5466430187225342
          -0.2066809982061386 0.8016420006752014 0.5609400272369385 0.7056810259819031 0.5902150273323059 -0.39199599623680115
          -0.47529301047325134 -0.7423539757728577 0.4722360074520111 -0.455471009016037 -0.6604740023612976 0.5969259738922119
          -0.12064799666404724 -0.7399219870567322 0.6617850065231323 0.43845298886299133 -0.8170459866523743 0.374426007270813
          -0.07491300255060196 -0.5680760145187378 -0.8195589780807495 0.8500199913978577 -0.5104020237922668 0.1302179992198944
          -0.2237830013036728 0.563821017742157 -0.7950009703636169 -0.5619909763336182 0.6782400012016296 0.47345200181007385
          -0.5322020053863525 0.599245011806488 0.5980510115623474 -0.2098429948091507 0.71840500831604 0.6632199883460999
          0.3839679956436157 0.8435940146446228 0.37539100646972656 0.6882659792900085 0.7246670126914978 0.03389199823141098
          -0.5379350185394287 -0.8354250192642212 -0.1126519963145256 0.8007540106773376 -0.5677570104598999 0.19090700149536133
          -0.6840260028839111 0.6796550154685974 -0.26490798592567444 0.7479150295257568 0.6591460108757019 0.07842499762773514
          -0.4752900004386902 -0.7423580288887024 -0.47223299741744995 -0.5619940161705017 0.6782360076904297 -0.47345399856567383
          -0.4554719924926758 -0.6604700088500977 -0.5969290137290955 -0.12064599990844727 -0.7399230003356934 -0.6617839932441711
          0.4841020107269287 -0.7914479970932007 -0.37316998839378357 0.7711089849472046 -0.635886013507843 -0.03225800022482872
          -0.1533070057630539 -0.5851889848709106 0.7962729930877686 -0.143544003367424 0.5564119815826416 0.8184139728546143
          -0.5321990251541138 0.5992509722709656 -0.598048985004425 -0.2098419964313507 0.7184039950370789 -0.663221001625061
          0.3356049954891205 0.8633990287780762 -0.37671101093292236 0.7820680141448975 0.6091179847717285 -0.13169999420642853
          0.8223670125007629 -0.5637230277061462 -0.07699599862098694 -0.5965380072593689 -0.7569360136985779 0.2668139934539795
          0.7258849740028381 0.6603360176086426 -0.1924770027399063 -0.6353620290756226 0.7642490267753601 0.11062999814748764
          0.655614972114563 -0.728983998298645 -0.19685399532318115 -0.6205400228500366 -0.7828519940376282 -0.045531999319791794
          -0.7560889720916748 0.6277769804000854 -0.18500100076198578 0.5502319931983948 0.7783430218696594 -0.3023679852485657
          -0.6745190024375916 -0.7142770290374756 0.18663300573825836 0.6408159732818604 -0.705062985420227 0.30371299386024475
          0.5620080232620239 0.8037459850311279 0.19529399275779724 -0.7108150124549866 0.7020120024681091 0.0438309982419014
          -0.6574599742889404 -0.7382320165634155 -0.15086600184440613 -0.6755579710006714 -0.7373070120811462 -0.0004360000020824373
          0.7773129940032959 -0.6291130185127258 -0.0004250000056345016 0.6950370073318481 0.7189739942550659 0.00042299999040551484
          -0.7387700080871582 0.6571890115737915 -0.14940199255943298 -0.7596719861030579 0.6503069996833801 0.0004360000020824373
          -0.653689980506897 -0.7415040135383606 0.15120099484920502 -0.7421200275421143 0.6534789800643921 0.14907599985599518
          <InformationKey name="L2_NORM_RANGE" location="vtkDataArray" length="2">
            <Value index="0">
              0.99999928557
            </Value>
            <Value index="1">
              1.0000006911
            </Value>
          </InformationKey>
        </DataArray>
      </PointData>
      <CellData>
      </CellData>
      <Points>
        <DataArray type="Float32" Name="Points" NumberOfComponents="3" format="ascii" RangeMin="0.10640038424492802" RangeMax="0.12492872564000496">
          -0.012107999995350838 0.10779699683189392 0 -0.01180300023406744 0.10781099647283554 0.0034280000254511833
          -0.024768000468611717 0.11096899956464767 0.003607999999076128 -0.02501000091433525 0.11095800250768661 0
          -0.01179600041359663 0.10781600326299667 0 -0.01267900038510561 0.11726400256156921 0
          -0.012373999692499638 0.11727900058031082 0.003435000078752637 -0.024768000468611717 0.11096899956464767 -0.003607999999076128
          -0.01180300023406744 0.10781099647283554 -0.0034280000254511833 -0.012373999692499638 0.11727900058031082 -0.003435000078752637
          -0.0245169997215271 0.11098399758338928 0.0051369997672736645 -0.011359999887645245 0.10783799737691879 0.004871999844908714
          -0.02274099923670292 0.11109200119972229 0.007222999818623066 -0.011931000277400017 0.11730299890041351 0.0048779998905956745
          -0.024862999096512794 0.11255700141191483 0.0036090000066906214 -0.025105999782681465 0.11254599690437317 0
          -0.024613000452518463 0.11256899684667587 0.0051380000077188015 -0.024862999096512794 0.11255700141191483 -0.0036090000066906214
          -0.012366999872028828 0.11728399991989136 0 -0.022836999967694283 0.1126750037074089 0.007224999833852053
          -0.0245169997215271 0.11098399758338928 -0.0051369997672736645 -0.024613000452518463 0.11256899684667587 -0.0051380000077188015
          -0.02274099923670292 0.11109200119972229 -0.007222999818623066 -0.011359999887645245 0.10783799737691879 -0.004871999844908714
          -0.011931000277400017 0.11730299890041351 -0.0048779998905956745 -0.022836999967694283 0.1126750037074089 -0.007224999833852053
          -0.02033800072968006 0.11123800277709961 0.009073000401258469 -0.017886999994516373 0.1113860011100769 0.011870999820530415
          -0.015829000622034073 0.1088780015707016 0.014030000194907188 -0.008723000064492226 0.10931900143623352 0.008573999628424644
          -0.012919999659061432 0.11102700233459473 0.017833000048995018 -0.00913500040769577 0.1161469966173172 0.008578999899327755
          -0.02043299935758114 0.11281900107860565 0.009073999710381031 -0.0179820004850626 0.11296600103378296 0.011872000060975552
          -0.016240999102592468 0.11570200324058533 0.014034000225365162 -0.013094999827444553 0.11391600221395493 0.017835000529885292
          -0.02033800072968006 0.11123800277709961 -0.009073000401258469 -0.02043299935758114 0.11281900107860565 -0.009073999710381031
          -0.017886999994516373 0.1113860011100769 -0.011870999820530415 -0.015829000622034073 0.1088780015707016 -0.014030000194907188
          -0.012919999659061432 0.11102700233459473 -0.017833000048995018 -0.008723000064492226 0.10931900143623352 -0.008573999628424644
          -0.00913500040769577 0.1161469966173172 -0.008578999899327755 -0.0179820004850626 0.11296600103378296 -0.011872000060975552
          -0.016240999102592468 0.11570200324058533 -0.014034000225365162 -0.013094999827444553 0.11391600221395493 -0.017835000529885292
          -0.006897999905049801 0.11008699983358383 0.010978000238537788 -0.011110999621450901 0.11179699748754501 0.019215000793337822
          -0.007230000104755163 0.1156029999256134 0.010982000268995762 -0.01120499987155199 0.11337000131607056 0.01921599917113781
          -0.011110999621450901 0.11179699748754501 -0.019215000793337822 -0.006897999905049801 0.11008699983358383 -0.010978000238537788
          -0.01120499987155199 0.11337000131607056 -0.01921599917113781 -0.007230000104755163 0.1156029999256134 -0.010982000268995762
          -0.005133999977260828 0.11151000112295151 0.012749999761581421 -0.007613999769091606 0.10937599837779999 0.02306699939072132
          -0.0053079999051988125 0.11440300196409225 0.012752000242471695 -0.008024999871850014 0.11619299650192261 0.023072000592947006
          -0.007613999769091606 0.10937599837779999 -0.02306699939072132 -0.005133999977260828 0.11151000112295151 -0.012749999761581421
          -0.008024999871850014 0.11619299650192261 -0.023072000592947006 -0.0053079999051988125 0.11440300196409225 -0.012752000242471695
          -0.0017630000365898013 0.11171499639749527 0.01458400022238493 -0.005297000054270029 0.10951700061559677 0.024501999840140343
          -0.0019369999645277858 0.11460699886083603 0.014585999771952629 -0.005708000157028437 0.1163330003619194 0.02450600080192089
          -0.005297000054270029 0.10951700061559677 -0.024501999840140343 -0.0017630000365898013 0.11171499639749527 -0.01458400022238493
          -0.005708000157028437 0.1163330003619194 -0.02450600080192089 -0.0019369999645277858 0.11460699886083603 -0.014585999771952629
          0.004865000024437904 0.10764800012111664 0.015696000307798386 0.002002999885007739 0.10500700026750565 0.01850700005888939
          0.001003999961540103 0.10437799990177155 0.020622000098228455 0.004178999923169613 0.11274000257253647 0.015080999583005905
          0.0063310000114142895 0.10802300274372101 0.01463599968701601 0.004083999898284674 0.11431699991226196 0.015081999823451042
          0.0010720000136643648 0.11254200339317322 0.024032000452280045 -0.0031640001107007265 0.1122799962759018 0.025572000071406364
          -0.003258999902755022 0.11384899914264679 0.0255730003118515 0.0009950000094249845 0.12171799689531326 0.018518000841140747
          0.004153000190854073 0.11945399641990662 0.015704000368714333 -0.00007100000220816582 0.12221500277519226 0.020633000880479813
          0.005652999971061945 0.11926399916410446 0.014643000438809395 0.000977999996393919 0.11411099880933762 0.02403300069272518
          0.001003999961540103 0.10437799990177155 -0.020622000098228455 -0.0031640001107007265 0.1122799962759018 -0.025572000071406364
          0.0010720000136643648 0.11254200339317322 -0.024032000452280045 -0.003258999902755022 0.11384899914264679 -0.0255730003118515
          0.002002999885007739 0.10500700026750565 -0.01850700005888939 0.004865000024437904 0.10764800012111664 -0.015696000307798386
          0.0063310000114142895 0.10802300274372101 -0.01463599968701601 0.004178999923169613 0.11274000257253647 -0.015080999583005905
          0.004083999898284674 0.11431699991226196 -0.015081999823451042 -0.00007100000220816582 0.12221500277519226 -0.020633000880479813
          0.000977999996393919 0.11411099880933762 -0.02403300069272518 0.004153000190854073 0.11945399641990662 -0.015704000368714333
          0.0009950000094249845 0.12171799689531326 -0.018518000841140747 0.005652999971061945 0.11926399916410446 -0.014643000438809395
          0.008012999780476093 0.10578399896621704 0.023364000022411346 0.00446499977260828 0.10489699989557266 0.02340099960565567
          0.012134999968111515 0.10738600045442581 0.02202099934220314 0.008349999785423279 0.11299800127744675 0.01370999962091446
          0.009484999813139439 0.10943300276994705 0.013783999718725681 0.008255000226199627 0.11457499861717224 0.013710999861359596
          0.014817999675869942 0.10792200267314911 0.02063800022006035 0.008953000418841839 0.11825200170278549 0.013790000230073929
          0.0011990000493824482 0.11254800111055374 0.02583399973809719 0.0011050000321120024 0.11411599814891815 0.025834999978542328
          0.00342700001783669 0.12211699783802032 0.023412000387907028 0.007054999936372042 0.12167199701070786 0.023375000804662704
          0.011339000426232815 0.1205890029668808 0.022029999643564224 0.014065999537706375 0.12038899958133698 0.020647000521421432
          0.00446499977260828 0.10489699989557266 -0.02340099960565567 0.0011990000493824482 0.11254800111055374 -0.02583399973809719
          0.0011050000321120024 0.11411599814891815 -0.025834999978542328 0.008012999780476093 0.10578399896621704 -0.023364000022411346
          0.012134999968111515 0.10738600045442581 -0.02202099934220314 0.009484999813139439 0.10943300276994705 -0.013783999718725681
          0.008349999785423279 0.11299800127744675 -0.01370999962091446 0.014817999675869942 0.10792200267314911 -0.02063800022006035
          0.008255000226199627 0.11457499861717224 -0.013710999861359596 0.008953000418841839 0.11825200170278549 -0.013790000230073929
          0.00342700001783669 0.12211699783802032 -0.023412000387907028 0.007054999936372042 0.12167199701070786 -0.023375000804662704
          0.011339000426232815 0.1205890029668808 -0.022029999643564224 0.014065999537706375 0.12038899958133698 -0.020647000521421432
          0.008922000415623188 0.11302199959754944 0.026664000004529953 0.007408000063151121 0.11292900145053864 0.027744999155402184
          0.010773000307381153 0.11313699930906296 0.02607399970293045 0.015848999843001366 0.11344999819993973 0.02463899925351143
          0.01332200039178133 0.113305002450943 0.011056999675929546 0.015908999368548393 0.1094600036740303 0.011482000350952148
          0.013226999901235104 0.11488500237464905 0.011057999916374683 0.017622999846935272 0.10762599855661392 0.018706999719142914
          0.015332999639213085 0.11901800334453583 0.011487999930977821 0.016814999282360077 0.12103100121021271 0.018716000020503998