<?xml version="1.0"?>
<VTKFile type="PolyData" version="0.1" byte_order="LittleEndian" header_type="UInt32" compressor="vtkZLibDataCompressor">
  <PolyData>
    <Piece NumberOfPoints="24" NumberOfVerts="0" NumberOfLines="0" NumberOfStrips="0" NumberOfPolys="6">
      <PointData Normals="Normals">
        <DataArray type="Float32" Name="Normals" NumberOfComponents="3" format="ascii" RangeMin="1" RangeMax="1">
          -1 0 0 -1 0 0
          -1 0 0 -1 0 0
          1 0 0 1 0 0
          1 0 0 1 0 0
          0 -1 0 0 -1 0
          0 -1 0 0 -1 0
          0 1 0 0 1 0
          0 1 0 0 1 0
          0 0 -1 0 0 -1
          0 0 -1 0 0 -1
          0 0 1 0 0 1
          0 0 1 0 0 1
          <InformationKey name="L2_NORM_RANGE" location="vtkDataArray" length="2">
            <Value index="0">
              1
            </Value>
            <Value index="1">
              1
            </Value>
          </InformationKey>
        </DataArray>
      </PointData>
      <CellData>
      </CellData>
      <Points>
        <DataArray type="Float32" Name="Points" NumberOfComponents="3" format="ascii" RangeMin="0.5385164818202809" RangeMax="2.4601829733446547">
          -0.5 -0.05000000074505806 -1.100000023841858 -0.5 -0.05000000074505806 0.20000000298023224
          -0.5 0 -1.100000023841858 -0.5 0 0.20000000298023224
          2.200000047683716 -0.05000000074505806 -1.100000023841858 2.200000047683716 -0.05000000074505806 0.20000000298023224
          2.200000047683716 0 -1.100000023841858 2.200000047683716 0 0.20000000298023224
          -0.5 -0.05000000074505806 -1.100000023841858 -0.5 -0.05000000074505806 0.20000000298023224
          2.200000047683716 -0.05000000074505806 -1.100000023841858 2.200000047683716 -0.05000000074505806 0.20000000298023224
          -0.5 0 -1.100000023841858 -0.5 0 0.20000000298023224
          2.200000047683716 0 -1.100000023841858 2.200000047683716 0 0.20000000298023224
          -0.5 -0.05000000074505806 -1.100000023841858 2.200000047683716 -0.05000000074505806 -1.100000023841858
          -0.5 0 -1.100000023841858 2.200000047683716 0 -1.100000023841858
          -0.5 -0.05000000074505806 0.20000000298023224 2.200000047683716 -0.05000000074505806 0.20000000298023224
          -0.5 0 0.20000000298023224 2.200000047683716 0 0.20000000298023224
          <InformationKey name="L2_NORM_RANGE" location="vtkDataArray" length="2">
            <Value index="0">
              0.53851648182
            </Value>
            <Value index="1">
              2.4601829733
            </Value>
          </InformationKey>
        </DataArray>
      </Points>
      <Verts>
        <DataArray type="Int64" Name="connectivity" format="ascii" RangeMin="1e+299" RangeMax="-1e+299">
        </DataArray>
        <DataArray type="Int64" Name="offsets" format="ascii" RangeMin="1e+299" RangeMax="-1e+299">
        </DataArray>
      </Verts>
      <Lines>
        <DataArray type="Int64" Name="connectivity" format="ascii" RangeMin="1e+299" RangeMax="-1e+299">
        </DataArray>
        <DataArray type="Int64" Name="offsets" format="ascii" RangeMin="1e+299" RangeMax="-1e+299">
        </DataArray>
      </Lines>
      <Strips>
        <DataArray type="Int64" Name="connectivity" format="ascii" RangeMin="1e+299" RangeMax="-1e+299">
        </DataArray>
        <DataArray type="Int64" Name="offsets" format="ascii" RangeMin="1e+299" RangeMax="-1e+299">
        </DataArray>
      </Strips>
      <Polys>
        <DataArray type="Int32" Name="connectivity" format="ascii" RangeMin="0" RangeMax="23">
          0 1 3 2 4 6
          7 5 8 10 11 9
          12 13 15 14 16 18
          19 17 20 21 23 22
        </DataArray>
        <DataArray type="Int32" Name="offsets" format="ascii" RangeMin="4" RangeMax="24">
          4 8 12 16 20 24
        </DataArray>
      </Polys>
    </Piece>
  </PolyData>
</VTKFile>
