<?xml version="1.0"?>
<VTKFile type="PolyData" version="0.1" byte_order="LittleEndian" header_type="UInt32" compressor="vtkZLibDataCompressor">
  <PolyData>
    <Piece NumberOfPoints="209" NumberOfVerts="0" NumberOfLines="0" NumberOfStrips="0" NumberOfPolys="414">
      <PointData Normals="Normals">
        <DataArray type="Float32" Name="Normals" NumberOfComponents="3" format="ascii" RangeMin="0.9999993585603527" RangeMax="1.0000006961475691">
          -0.1903419941663742 0.31268200278282166 0.9305909872055054 -0.23546800017356873 0.6817929744720459 0.6926130056381226
          -0.28698599338531494 0.2399120032787323 0.9274060130119324 -0.3390580117702484 0.369596004486084 0.8651229739189148
          -0.37668299674987793 -0.22820599377155304 0.8977929949760437 -0.11704500019550323 0.7670320272445679 0.6308419704437256
          -0.3580760061740875 0.7002879977226257 0.6175580024719238 -0.6992030143737793 0.5316630005836487 0.47796401381492615
          -0.32261601090431213 0.6840100288391113 0.6542540192604065 -0.5920609831809998 0.7768939733505249 0.21424299478530884
          -0.3701620101928711 0.7273169755935669 0.5779179930686951 -0.42385900020599365 0.7175740003585815 0.5526580214500427
          -0.5113000273704529 0.7495520114898682 0.4204089939594269 -0.6062729954719543 0.06670799851417542 0.7924540042877197
          -0.5673350095748901 0.39991798996925354 0.7198579907417297 -0.6886820197105408 0.1220019981265068 0.7147250175476074
          -0.4207180142402649 -0.47132501006126404 0.7751449942588806 -0.015654999762773514 -0.8613070249557495 0.507843017578125
          -0.42013999819755554 -0.8131279945373535 0.4028719961643219 0.3434540033340454 0.7221360206604004 0.6004649996757507
          0.10496100038290024 0.9279789924621582 0.3575440049171448 0.0830800011754036 0.8063589930534363 0.585561990737915
          -0.37744900584220886 0.7969599962234497 0.4715780019760132 -0.04103400185704231 0.9886490106582642 0.14452899992465973
          -0.7014610171318054 0.6110069751739502 0.366908997297287 -0.9518679976463318 0.2866950035095215 0.10840900242328644
          -0.8973760008811951 0.4406220018863678 0.023845000192523003 -0.10981599986553192 0.6060280203819275 0.7878270149230957
          -0.5069069862365723 0.5027850270271301 0.7001799941062927 -0.47639399766921997 0.6835309863090515 0.5530229806900024
          -0.9996410012245178 -0.026489000767469406 -0.003909999970346689 -0.739998996257782 0.07806800305843353 0.6680619716644287
          -0.5419120192527771 -0.4023300111293793 0.7378770112991333 -0.8777469992637634 -0.47911301255226135 0.0033939999993890524
          -0.696819007396698 -0.6362580060958862 0.33108699321746826 0.13814400136470795 -0.4974049925804138 0.8564490079879761
          -0.31249499320983887 -0.6567760109901428 0.6862879991531372 0.2609730064868927 -0.8382440209388733 0.4787909984588623
          0.1444839984178543 -0.8231940269470215 0.5490689873695374 0.775967001914978 0.47745299339294434 0.4122059941291809
          0.33392399549484253 0.9010009765625 0.2769320011138916 0.5450189709663391 0.5712059736251831 0.6137409806251526
          0.896668016910553 0.06383299827575684 0.43807700276374817 0.332071989774704 0.817192018032074 -0.4710890054702759
          0.2640259861946106 0.9141190052032471 -0.30769699811935425 0.39577800035476685 0.5079489946365356 0.7650799751281738
          0.3930949866771698 0.6559470295906067 0.6443679928779602 0.5410749912261963 0.4147320091724396 0.7315970063209534
          -0.43564000725746155 0.8965489864349365 0.08011200278997421 -0.08682599663734436 0.9784380197525024 -0.18740400671958923
          -0.37514299154281616 0.9247949719429016 0.06341200321912766 0.28179898858070374 0.7713940143585205 -0.5705609917640686
          0.23987999558448792 0.8504319787025452 -0.4682120084762573 -0.8259119987487793 0.5148249864578247 -0.2298389971256256
          -0.9845150113105774 0.14181500673294067 0.10305000096559525 -0.9711319804191589 -0.2044599950313568 -0.12287399917840958
          -0.25632598996162415 0.13230000436306 0.957493007183075 -0.46161800622940063 0.15168499946594238 0.8740140199661255
          0.5360919833183289 0.167261004447937 0.8274229764938354 0.22930899262428284 0.06988000124692917 0.9708420038223267
          -0.6665700078010559 0.060777001082897186 0.7429609894752502 -0.0654740035533905 -0.08738599717617035 0.9940209984779358
          0.20404399931430817 -0.3229990005493164 0.9241420030593872 -0.7877839803695679 -0.6132619976997375 -0.05750200152397156
          -0.9348120093345642 -0.34043601155281067 -0.10114400088787079 -0.6538469791412354 -0.7550280094146729 0.049164000898599625
          0.2878040075302124 -0.6509850025177002 0.7024149894714355 -0.0536700002849102 -0.5663099884986877 0.8224430084228516
          -0.38547998666763306 -0.892192006111145 0.2353699952363968 0.2796480059623718 -0.9329689741134644 0.2266390025615692
          0.5264409780502319 -0.8495339751243591 -0.033952001482248306 0.5842030048370361 -0.7789390087127686 0.22795000672340393
          0.22064800560474396 -0.9600840210914612 -0.17191199958324432 0.2205210030078888 -0.911300003528595 0.3477100133895874
          0.6596320271492004 -0.4520930051803589 0.600413978099823 0.5802770256996155 -0.3207930028438568 0.7485790252685547
          0.6470999717712402 0.7229269742965698 -0.24215200543403625 0.9417809844017029 0.14212200045585632 0.3047119975090027
          0.7786350250244141 0.10693400353193283 0.6182979941368103 0.703013002872467 -0.3601439893245697 0.6132439970970154
          0.9207149744033813 -0.20451100170612335 0.33235299587249756 0.9609419703483582 -0.09442400187253952 0.26014500856399536
          0.9932730197906494 0.023493999615311623 -0.11338700354099274 0.7188209891319275 0.15295599400997162 -0.6781600117683411
          0.3680889904499054 0.6930950284004211 -0.6197819709777832 0.4241800010204315 0.5248180031776428 -0.737995982170105
          0.38570699095726013 0.4812609851360321 -0.7871580123901367 0.32657700777053833 0.4540170133113861 -0.8289849758148193
          0.27451300621032715 0.7606920003890991 -0.5882089734077454 0.35679399967193604 0.7767300009727478 -0.5190269947052002
          0.2912850081920624 0.7995560169219971 -0.5252259969711304 0.7061700224876404 0.0023060000967234373 0.7080389857292175
          0.6781169772148132 -0.025608999654650688 0.7345070242881775 0.7524719834327698 0.002061000093817711 0.6586210131645203
          -0.6422560214996338 0.7621030211448669 -0.0818919986486435 -0.48969200253486633 0.81256502866745 -0.3161329925060272
          0.14420700073242188 0.46494799852371216 -0.8735139966011047 0.43495699763298035 0.2893480062484741 -0.8526960015296936
          -0.7548630237579346 0.46036601066589355 -0.467166006565094 -0.6380389928817749 0.22605200111865997 -0.7360749840736389
          -0.9503059983253479 0.220877006649971 -0.21939100325107574 -0.9309759736061096 0.28473100066185 0.22849799692630768
          -0.9212570190429688 0.3184939920902252 0.22326399385929108 -0.915244996547699 0.3254530131816864 0.23750199377536774
          -0.9721760153770447 -0.01697400026023388 0.2336370050907135 -0.8248590230941772 -0.564503014087677 -0.030741000548005104
          -0.865667998790741 -0.44719401001930237 0.2250249981880188 -0.8040720224380493 -0.5917080044746399 0.05787599831819534
          0.7367249727249146 -0.20789900422096252 0.6434400081634521 0.6118280291557312 -0.09697599709033966 0.7850229740142822
          0.7266119718551636 -0.14646700024604797 0.6712539792060852 -0.5580480098724365 -0.8043839931488037 -0.20383800566196442
          -0.689365029335022 -0.71144700050354 -0.13644999265670776 -0.8091530203819275 -0.5731030106544495 -0.1297139972448349
          -0.5727249979972839 -0.8084139823913574 -0.1358409970998764 0.026731999590992928 -0.9924610257148743 0.11961299926042557
          -0.26485198736190796 -0.9508680105209351 0.16032299399375916 -0.07609400153160095 -0.8189470171928406 -0.568801999092102
          0.00029600001289509237 -0.9954439997673035 -0.09534899890422821 0.010692999698221684 -0.9894090294837952 -0.14475999772548676
          -0.09271100163459778 -0.9265589714050293 -0.36454400420188904 0.2956309914588928 -0.7496910095214844 -0.5920860171318054
          0.2802560031414032 -0.7363380193710327 -0.6158429980278015 0.2577280104160309 -0.6477010250091553 -0.71697998046875
          0.4232499897480011 -0.6716529726982117 -0.6080639958381653 0.8219469785690308 -0.4504219889640808 -0.34860101342201233
          0.6817939877510071 -0.09169899672269821 -0.7257739901542664 0.3293150067329407 -0.6298580169677734 -0.7034419775009155
          0.5661590099334717 -0.7876319885253906 0.2431029975414276 0.10629799962043762 -0.5042920112609863 -0.8569660186767578
          0.5683820247650146 -0.41141000390052795 -0.7125189900398254 0.32588401436805725 0.520281970500946 -0.7893700003623962
          0.6234809756278992 0.346345990896225 -0.7009389996528625 0.9816589951515198 0.1773969978094101 -0.06982800364494324
          0.7787079811096191 -0.17281100153923035 0.6031169891357422 0.8514459729194641 -0.2715100049972534 -0.4486890137195587
          0.3906469941139221 0.3110179901123047 -0.8664079904556274 0.3645069897174835 0.24407799541950226 -0.898643970489502
          0.36358800530433655 0.5359780192375183 -0.761925995349884 0.34498998522758484 0.5029590129852295 -0.7924739718437195
          -0.6308929920196533 0.5466210246086121 -0.5506179928779602 0.478302001953125 0.2770940065383911 -0.8333340287208557
          0.17429399490356445 0.25827598571777344 -0.9502180218696594 0.43537500500679016 0.223921000957489 -0.8719559907913208
          -0.385017991065979 0.42243099212646484 -0.8205569982528687 -0.04710900038480759 0.21242700517177582 -0.9760410189628601
          -0.27502700686454773 0.28580498695373535 -0.9179739952087402 -0.798105001449585 0.0939679965376854 -0.5951460003852844
          -0.9620779752731323 -0.057711001485586166 -0.26660099625587463 -0.9973359704017639 -0.030886000022292137 0.06607700139284134
          -0.9718890190124512 0.14197300374507904 0.18782000243663788 -0.5640559792518616 0.24830999970436096 -0.7875170111656189
          -0.9537619948387146 0.13770900666713715 0.26715999841690063 -0.9074730277061462 -0.20565399527549744 0.3663330078125
          -0.607342004776001 -0.7917870283126831 0.06486999988555908 -0.7018190026283264 -0.647167980670929 0.2976970076560974
          -0.33555200695991516 -0.9400370121002197 -0.06112299859523773 -0.3599820137023926 -0.8798069953918457 -0.31040599942207336
          -0.12651699781417847 -0.9815729856491089 -0.14320899546146393 -0.3642919957637787 -0.8226789832115173 -0.4364530146121979
          -0.05963499844074249 -0.7335910201072693 -0.6769700050354004 -0.3428589999675751 -0.7932029962539673 -0.5032659769058228
          -0.2760680019855499 -0.7695170044898987 -0.5758730173110962 0.053872000426054 -0.7849770188331604 -0.6171780228614807
          0.48192098736763 -0.026621000841259956 -0.8758100271224976 0.4391170144081116 0.11421500146389008 -0.8911399841308594
          0.26008298993110657 0.2395710051059723 -0.9353939890861511 0.05628100037574768 0.18945200741291046 -0.9802759885787964
          -0.22596700489521027 0.17719300091266632 -0.9578840136528015 -0.47981101274490356 0.09298399835824966 -0.8724309802055359
          -0.7096189856529236 -0.43630799651145935 -0.553242027759552 -0.8599990010261536 -0.18516500294208527 -0.4755159914493561
          -0.7459229826927185 -0.6647350192070007 -0.041540998965501785 -0.7443850040435791 -0.6374620199203491 0.19882899522781372
          -0.347555011510849 -0.8650130033493042 0.3618820011615753 -0.2979089915752411 -0.8653420209884644 0.40303099155426025
          -0.34146198630332947 -0.8835150003433228 0.3206320106983185 -0.35415300726890564 -0.8746190071105957 0.3310849964618683
          -0.28126299381256104 -0.9302669763565063 0.23557299375534058 -0.2586140036582947 -0.8755760192871094 -0.4080269932746887
          -0.24063600599765778 -0.9062939882278442 -0.3474560081958771 -0.2951819896697998 -0.8502429723739624 -0.4358380138874054
          -0.11448299884796143 -0.9743840098381042 -0.19357000291347504 0.025783000513911247 -0.9979789853096008 0.058072999119758606
          0.13959600031375885 -0.9593799710273743 -0.24515900015830994 0.27154600620269775 -0.7962790131568909 -0.5405579805374146
          0.41839900612831116 -0.3061020076274872 -0.8551279902458191 0.20870299637317657 0.04955900087952614 -0.9767230153083801
          0.255403995513916 0.1894730031490326 -0.9480869770050049 0.3027690052986145 -0.2218250036239624 -0.9268900156021118
          0.21077799797058105 0.0983859971165657 -0.97257000207901 -0.08612599968910217 -0.43375200033187866 -0.8969069719314575
          -0.33660098910331726 -0.9343709945678711 0.11683599650859833 -0.27420300245285034 -0.9071210026741028 0.3192879855632782
          -0.3903760015964508 -0.7787789702415466 0.4910300076007843 -0.3831149935722351 -0.7729359865188599 0.5057600140571594
          -0.4871470034122467 -0.8141760230064392 0.3159179985523224 -0.29200801253318787 -0.8466489911079407 0.4448789954185486
          -0.09051500260829926 -0.9238150119781494 0.37198498845100403 -0.13713200390338898 -0.8980420231819153 0.4179910123348236
          -0.20603199303150177 -0.8694030046463013 0.44909799098968506 -0.30250999331474304 -0.7967889904975891 0.5230820178985596
          -0.07826299965381622 -0.978859007358551 0.1889680027961731 0.05678100138902664 -0.9557610154151917 -0.2886120080947876
          -0.1344279944896698 -0.9616400003433228 0.23911799490451813 -0.3469820022583008 -0.8537830114364624 0.3881460130214691
          -0.06362800300121307 -0.9752299785614014 0.2118459939956665 -0.11398600041866302 -0.9265620112419128 0.35845598578453064
          -0.05047199875116348 -0.9805439710617065 0.18970200419425964
          <InformationKey name="L2_NORM_RANGE" location="vtkDataArray" length="2">
            <Value index="0">
              0.99999935856
            </Value>
            <Value index="1">
              1.0000006961
            </Value>
          </InformationKey>
        </DataArray>
      </PointData>
      <CellData>
      </CellData>
      <Points>
        <DataArray type="Float32" Name="Points" NumberOfComponents="3" format="ascii" RangeMin="0.06968902123784429" RangeMax="0.09572310856723384">
          0.07442999631166458 0.019362999126315117 0.01945200003683567 0.07415399700403214 0.021671000868082047 0.01789899915456772
          0.07065500319004059 0.019415000453591347 0.018655000254511833 0.07785899937152863 0.019169999286532402 0.020212000235915184
          0.07743799686431885 0.015683000907301903 0.02035200037062168 0.07846000045537949 0.025544999167323112 0.014573000371456146
          0.07125400006771088 0.026078000664711 0.010773000307381153 0.07014799863100052 0.020244000479578972 0.018123000860214233
          0.07946400344371796 0.020073000341653824 0.020250000059604645 0.07076600193977356 0.020791999995708466 0.01763400062918663
          0.07162299752235413 0.02468400076031685 0.012632999569177628 0.07059299945831299 0.022071000188589096 0.015515999868512154
          0.07113700360059738 0.021340999752283096 0.016938000917434692 0.06941500306129456 0.017819000408053398 0.01808599941432476
          0.07891900092363358 0.018821999430656433 0.021112000569701195 0.07982099801301956 0.01854499988257885 0.022098999470472336
          0.06973999738693237 0.015007000416517258 0.01815599948167801 0.08061300218105316 0.014542999677360058 0.019121000543236732
          0.0816510021686554 0.01484999991953373 0.021456999704241753 0.09065999835729599 0.02455900050699711 0.015305999666452408
          0.08671700209379196 0.025848999619483948 0.013670000247657299 0.08767099678516388 0.02268899977207184 0.0189059991389513
          0.07110299915075302 0.026856999844312668 0.009889000095427036 0.0778380036354065 0.02814199961721897 0.011454000137746334
          0.06896699965000153 0.025405999273061752 0.010002000257372856 0.0693809986114502 0.018293999135494232 0.0178459994494915
          0.07000699639320374 0.019700000062584877 0.01754399947822094 0.08290600031614304 0.019564999267458916 0.02340400032699108
          0.0812470018863678 0.01879500038921833 0.02327200025320053 0.07003200054168701 0.02303599938750267 0.0138330003246665
          0.06887099891901016 0.016188999637961388 0.017550000920891762 0.08032599836587906 0.018427999690175056 0.02266700007021427
          0.08200599998235703 0.015573999844491482 0.023205000907182693 0.06988000124692917 0.014027000404894352 0.017117999494075775
          0.07043299823999405 0.013288999907672405 0.017255999147892 0.0790340006351471 0.01171599980443716 0.017014000564813614
          0.07241500169038773 0.01105399988591671 0.01646300032734871 0.08469399809837341 0.013256999664008617 0.014305000193417072
          0.08317899703979492 0.014510000124573708 0.022760000079870224 0.09112299978733063 0.024893000721931458 0.014448000118136406
          0.09067899733781815 0.02556600049138069 0.014053000137209892 0.09033399820327759 0.023750999942421913 0.016366999596357346
          0.09102600067853928 0.02416899986565113 0.015192000195384026 0.08080100268125534 0.027533000335097313 0.010424000211060047
          0.08679699897766113 0.02591400034725666 0.012480000033974648 0.08570300042629242 0.020780999213457108 0.021662000566720963
          0.08924800157546997 0.02315099909901619 0.017771000042557716 0.08849500119686127 0.02229199931025505 0.0189449992030859
          0.07168100029230118 0.02724500000476837 0.009186999872326851 0.07237999886274338 0.02761700004339218 0.007116000168025494
          0.07217799872159958 0.027495000511407852 0.008344000205397606 0.07391899824142456 0.027086999267339706 0.006080999970436096
          0.07734700292348862 0.027522999793291092 0.008457000367343426 0.06885900348424911 0.025529999285936356 0.007891999557614326
          0.0692560002207756 0.01711600087583065 0.006302999798208475 0.06960500031709671 0.015860000625252724 0.016473999246954918
          0.08177100121974945 0.018221000209450722 0.023746000602841377 0.08118700236082077 0.018300000578165054 0.023444000631570816
          0.0841279998421669 0.0193060003221035 0.023252999410033226 0.08326999843120575 0.018566999584436417 0.02369699999690056
          0.08068499714136124 0.018330000340938568 0.023079000413417816 0.08221399784088135 0.017965000122785568 0.023840000852942467
          0.0829010009765625 0.01521500013768673 0.023221999406814575 0.07067699730396271 0.012656999751925468 0.015735000371932983
          0.0702890008687973 0.013477999716997147 0.015939999371767044 0.07236699759960175 0.01100200042128563 0.015967000275850296
          0.07935000211000443 0.009398999623954296 0.015697000548243523 0.07527700066566467 0.0103150000795722 0.01635099947452545
          0.07517799735069275 0.00952600035816431 0.015610000118613243 0.08382900059223175 0.008336000144481659 0.010746000334620476
          0.08578500151634216 0.008775999769568443 0.009410000406205654 0.08840800076723099 0.012144999578595161 0.01071999967098236
          0.09002800285816193 0.012803999707102776 0.011315000243484974 0.08597499877214432 0.013899999670684338 0.018048999831080437
          0.0865200012922287 0.015305999666452408 0.019053999334573746 0.08363600075244904 0.014952000230550766 0.02263600006699562
          0.09124000370502472 0.0252470001578331 0.013485999777913094 0.0913349986076355 0.02418999932706356 0.014399999752640724
          0.08949899673461914 0.022708000615239143 0.017849000170826912 0.0893160030245781 0.013717999681830406 0.01588599942624569
          0.0910710021853447 0.013469000346958637 0.01337399985641241 0.09148799628019333 0.023444000631570816 0.013611000031232834
          0.09156300127506256 0.022074999287724495 0.012811999768018723 0.0915440022945404 0.017589999362826347 0.011722000315785408
          0.08341299742460251 0.026629000902175903 0.01090299990028143 0.07714399695396423 0.02716200053691864 0.008000999689102173
          0.0809670016169548 0.026653999462723732 0.009877000004053116 0.08359800279140472 0.026110000908374786 0.01065099984407425
          0.08881700038909912 0.02538299933075905 0.012501999735832214 0.08572100102901459 0.025909999385476112 0.01159599982202053
          0.0872810035943985 0.02550099976360798 0.011977000162005424 0.08723700046539307 0.020949000492691994 0.02043900080025196
          0.08566199988126755 0.020124999806284904 0.021891999989748 0.08841100335121155 0.02168699912726879 0.01915000006556511
          0.07042299956083298 0.026429999619722366 0.0072189997881650925 0.07114800065755844 0.027055000886321068 0.005994999781250954
          0.07292100042104721 0.02700600028038025 0.005530000198632479 0.07443899661302567 0.02662000060081482 0.006161999888718128
          0.07046099752187729 0.025973999872803688 0.005776999983936548 0.07039199769496918 0.022822000086307526 0.00470300018787384
          0.06860499829053879 0.01663300022482872 0.004606999922543764 0.06882300227880478 0.015607999637722969 0.006463999859988689
          0.0690469965338707 0.015572000294923782 0.007391999941319227 0.06924299895763397 0.015567000024020672 0.008251000195741653
          0.06957799941301346 0.014871000312268734 0.010312000289559364 0.07039500027894974 0.013559999875724316 0.013492000289261341
          0.06986799836158752 0.013987000100314617 0.010546999983489513 0.07016699761152267 0.013779000379145145 0.012016999535262585
          0.08714299649000168 0.020204000174999237 0.020232999697327614 0.08415699750185013 0.018366999924182892 0.023395000025629997
          0.08555299788713455 0.018864000216126442 0.021758999675512314 0.07377099990844727 0.01075700018554926 0.012415999546647072
          0.07153599709272385 0.01179600041359663 0.015644000843167305 0.07049600034952164 0.013158000074326992 0.014697999693453312
          0.07246199995279312 0.010990999639034271 0.015432000160217285 0.07913099974393845 0.008058000355958939 0.013489999808371067
          0.07759399712085724 0.008290999568998814 0.014751000329852104 0.08413399755954742 0.008453000336885452 0.008090999908745289
          0.08172199875116348 0.008125999942421913 0.01039000041782856 0.08284900337457657 0.00822100043296814 0.00963400024920702
          0.08342800289392471 0.00840499997138977 0.00846800021827221 0.08451200276613235 0.00887100026011467 0.0076870000921189785
          0.08478499948978424 0.00928100012242794 0.00735800014808774 0.08505100011825562 0.010259999893605709 0.006244000047445297
          0.08641000092029572 0.009398999623954296 0.007247000001370907 0.08762200176715851 0.01080199982970953 0.007453000172972679
          0.08884499967098236 0.01269800029695034 0.009039999917149544 0.09121900051832199 0.013101000338792801 0.010883999988436699
          0.09087099879980087 0.012990999966859818 0.013288999907672405 0.09073299914598465 0.013217000290751457 0.010955000296235085
          0.09012199938297272 0.01363999955356121 0.009971000254154205 0.0900219976902008 0.02502099983394146 0.01270500011742115
          0.09109500050544739 0.02495799958705902 0.013047000393271446 0.09152200073003769 0.024553999304771423 0.013554999604821205
          0.08844300359487534 0.020837999880313873 0.01891000010073185 0.09146499633789062 0.01371300034224987 0.010962000116705894
          0.08345100283622742 0.02455900050699711 0.009970000013709068 0.08753400295972824 0.02385699935257435 0.011262999847531319
          0.08755999803543091 0.025123000144958496 0.011660000309348106 0.08601000159978867 0.02550799958407879 0.011254999786615372
          0.07070399820804596 0.026597000658512115 0.006089000031352043 0.07376399636268616 0.02493399940431118 0.005503000225871801
          0.07274500280618668 0.024860000237822533 0.0048870001919567585 0.07470499724149704 0.02501799911260605 0.006064999848604202
          0.07093799859285355 0.025940999388694763 0.005243000108748674 0.07174699753522873 0.024670999497175217 0.004865000024437904
          0.0704599991440773 0.01918499916791916 0.0035459999926388264 0.0690540000796318 0.01322999969124794 0.0028649999294430017
          0.06840699911117554 0.013054000213742256 0.004025000147521496 0.06823299825191498 0.013484999537467957 0.005787999834865332
          0.06831000000238419 0.014063999988138676 0.005882999859750271 0.06990200281143188 0.014081999659538269 0.002268000040203333
          0.06886699795722961 0.014499999582767487 0.008356999605894089 0.06933099776506424 0.014221999794244766 0.009380999952554703
          0.07086700201034546 0.013074999675154686 0.010842000134289265 0.06845299899578094 0.013278000056743622 0.006591999903321266
          0.07219800353050232 0.012489000335335732 0.009139000438153744 0.07842600345611572 0.010131999850273132 0.00979399960488081
          0.0805250033736229 0.008062999695539474 0.011215999722480774 0.08023399859666824 0.008342999964952469 0.01038500014692545
          0.08387099951505661 0.009304000064730644 0.007220999803394079 0.08137699961662292 0.009557999670505524 0.008074999786913395
          0.08265899866819382 0.009406999684870243 0.0075969998724758625 0.08307500183582306 0.011140000075101852 0.005107000004500151
          0.08658900111913681 0.010940000414848328 0.006757999770343304 0.08085300028324127 0.01185499969869852 0.004052999895066023
          0.07569699734449387 0.014658000320196152 0.0027129999361932278 0.07220400124788284 0.013551999814808369 0.0015910000074654818
          0.07092200219631195 0.013643999584019184 0.0018100000452250242 0.0697140023112297 0.012783999554812908 0.0020149999763816595
          0.06974799931049347 0.011858999729156494 0.0020290000829845667 0.06906899809837341 0.012676999904215336 0.0028460000175982714
          0.06838399916887283 0.012652000412344933 0.004484999924898148 0.06832999736070633 0.012977000325918198 0.005526999942958355
          0.07103399932384491 0.012896999716758728 0.0071669998578727245 0.0695440024137497 0.013043000362813473 0.006666000001132488
          0.06963200122117996 0.01256099995225668 0.005291000008583069 0.07245200127363205 0.012264999561011791 0.007519000209867954
          0.07468300312757492 0.011648000217974186 0.007788999937474728 0.07870599627494812 0.010533999651670456 0.007938000373542309
          0.07684600353240967 0.01106599997729063 0.007966999895870686 0.07999099791049957 0.010077999904751778 0.008023999631404877
          0.07848700135946274 0.010951999574899673 0.007321000099182129 0.0781330019235611 0.010622000321745872 0.005652000196278095
          0.07902300357818604 0.010874999687075615 0.004364000167697668 0.07880999892950058 0.011044999584555626 0.003831000067293644
          0.07882300019264221 0.011533999815583229 0.003186000045388937 0.07454899698495865 0.012772000394761562 0.0020240000449121
          0.07575099915266037 0.012821000069379807 0.002337000099942088 0.07701600342988968 0.011266999877989292 0.0023880000226199627
          0.07317099720239639 0.01319199986755848 0.001753999968059361 0.07175999879837036 0.011096999980509281 0.0015180000336840749
          0.0712909996509552 0.011036000214517117 0.0026179999113082886 0.06896699965000153 0.0125749995931983 0.004904999863356352
          0.07160700112581253 0.011746999807655811 0.006049000192433596 0.07199300080537796 0.012258999980986118 0.007187000010162592
          0.07078000158071518 0.011908999644219875 0.005433000158518553 0.07314799726009369 0.011997000314295292 0.007447000127285719
          0.07797999680042267 0.011099000461399555 0.007726000156253576 0.07504100352525711 0.011350000277161598 0.007259000092744827
          0.07416699826717377 0.011288000270724297 0.0068430001847445965 0.07321400195360184 0.011490000411868095 0.006703000050038099
          0.07759100198745728 0.010848999954760075 0.006572999991476536 0.07446099817752838 0.010591999627649784 0.002297000028192997
          0.07371100038290024 0.01093200035393238 0.005962000228464603 0.07197800278663635 0.011335999704897404 0.005747999995946884
          0.0767889991402626 0.010956999845802784 0.006953000091016293 0.07520200312137604 0.011060000397264957 0.006682999897748232
          0.07550100237131119 0.010878000408411026 0.0061969999223947525
          <InformationKey name="L2_NORM_RANGE" location="vtkDataArray" length="2">
            <Value index="0">
              0.069689021238
            </Value>
            <Value index="1">
              0.095723108567
            </Value>
          </InformationKey>
        </DataArray>
      </Points>
      <Verts>
        <DataArray type="Int64" Name="connectivity" format="ascii" RangeMin="1e+299" RangeMax="-1e+299">
        </DataArray>
        <DataArray type="Int64" Name="offsets" format="ascii" RangeMin="1e+299" RangeMax="-1e+299">
        </DataArray>
      </Verts>
      <Lines>
        <DataArray type="Int64" Name="connectivity" format="ascii" RangeMin="1e+299" RangeMax="-1e+299">
        </DataArray>
        <DataArray type="Int64" Name="offsets" format="ascii" RangeMin="1e+299" RangeMax="-1e+299">
        </DataArray>
      </Lines>
      <Strips>
        <DataArray type="Int64" Name="connectivity" format="ascii" RangeMin="1e+299" RangeMax="-1e+299">
        </DataArray>
        <DataArray type="Int64" Name="offsets" format="ascii" RangeMin="1e+299" RangeMax="-1e+299">
        </DataArray>
      </Strips>
      <Polys>
        <DataArray type="Int32" Name="connectivity" format="ascii" RangeMin="0" RangeMax="208">
          0 1 2 3 1 0
          4 3 0 4 0 2
          1 5 6 1 7 2
          8 1 3 7 1 9
          1 8 5 1 6 10
          11 12 1 11 1 10
          9 1 12 7 13 2
          4 2 13 8 3 14
          3 4 14 14 4 15
          16 4 13 17 4 16
          18 4 17 18 15 4
          19 20 5 5 8 21
          6 5 22 5 21 19
          20 23 5 23 22 5
          6 22 24 24 10 6
          25 13 7 26 25 7
          7 9 26 8 27 21
          8 14 15 28 27 8