<?xml version="1.0"?>
<VTKFile type="PolyData" version="0.1" byte_order="LittleEndian" header_type="UInt32" compressor="vtkZLibDataCompressor">
  <PolyData>
    <Piece NumberOfPoints="80" NumberOfVerts="0" NumberOfLines="0" NumberOfStrips="0" NumberOfPolys="22">
      <PointData Normals="Normals" TCoords="TCoords">
        <DataArray type="Float32" Name="Normals" NumberOfComponents="3" format="ascii" RangeMin="1" RangeMax="1.0000000250926921">
          1 0 0 1 0 0
          0.9510565400123596 0 -0.30901700258255005 0.9510565400123596 0 -0.30901700258255005
          0.80901700258255 0 -0.5877852439880371 0.80901700258255 0 -0.5877852439880371
          0.5877852439880371 0 -0.80901700258255 0.5877852439880371 0 -0.80901700258255
          0.30901700258255005 0 -0.9510565400123596 0.30901700258255005 0 -0.9510565400123596
          -2.051034342365199e-10 0 -1 -2.051034342365199e-10 0 -1
          -0.30901700258255005 0 -0.9510565400123596 -0.30901700258255005 0 -0.9510565400123596
          -0.5877852439880371 0 -0.80901700258255 -0.5877852439880371 0 -0.80901700258255
          -0.80901700258255 0 -0.5877852439880371 -0.80901700258255 0 -0.5877852439880371
          -0.9510565400123596 0 -0.30901700258255005 -0.9510565400123596 0 -0.30901700258255005
          -1 0 4.102068684730398e-10 -1 0 4.102068684730398e-10
          -0.9510565400123596 0 0.30901700258255005 -0.9510565400123596 0 0.30901700258255005
          -0.80901700258255 0 0.5877852439880371 -0.80901700258255 0 0.5877852439880371
          -0.5877852439880371 0 0.80901700258255 -0.5877852439880371 0 0.80901700258255
          -0.30901700258255005 0 0.9510565400123596 -0.30901700258255005 0 0.9510565400123596
          6.153103027095597e-10 0 1 6.153103027095597e-10 0 1
          0.30901700258255005 0 0.9510565400123596 0.30901700258255005 0 0.9510565400123596
          0.5877852439880371 0 0.80901700258255 0.5877852439880371 0 0.80901700258255
          0.80901700258255 0 0.5877852439880371 0.80901700258255 0 0.5877852439880371
          0.9510565400123596 0 0.30901700258255005 0.9510565400123596 0 0.30901700258255005
          0 1 0 0 1 0
          0 1 0 0 1 0
          0 1 0 0 1 0
          0 1 0 0 1 0
          0 1 0 0 1 0
          0 1 0 0 1 0
          0 1 0 0 1 0
          0 1 0 0 1 0
          0 1 0 0 1 0
          0 1 0 0 1 0
          0 -1 0 0 -1 0
          0 -1 0 0 -1 0
          0 -1 0 0 -1 0
          0 -1 0 0 -1 0
          0 -1 0 0 -1 0
          0 -1 0 0 -1 0
          0 -1 0 0 -1 0
          0 -1 0 0 -1 0
          0 -1 0 0 -1 0
          0 -1 0 0 -1 0
          <InformationKey name="L2_NORM_RANGE" location="vtkDataArray" length="2">
            <Value index="0">
              1
            </Value>
            <Value index="1">
              1.0000000251
            </Value>
          </InformationKey>
        </DataArray>
        <DataArray type="Float32" Name="TCoords" NumberOfComponents="2" format="ascii" RangeMin="0" RangeMax="1.4142135623730951">
          1 0 1 1 0.8999999761581421 0
          0.8999999761581421 1 0.800000011920929 0 0.800000011920929 1
          0.699999988079071 0 0.699999988079071 1 0.6000000238418579 0
          0.6000000238418579 1 0.5 0 0.5 1
          0.4000000059604645 0 0.4000000059604645 1 0.30000001192092896 0
          0.30000001192092896 1 0.20000000298023224 0 0.20000000298023224 1
          0.10000000149011612 0 0.10000000149011612 1 0 0
          0 1 0.10000000149011612 0 0.10000000149011612 1
          0.20000000298023224 0 0.20000000298023224 1 0.30000001192092896 0
          0.30000001192092896 1 0.4000000059604645 0 0.4000000059604645 1
          0.5 0 0.5 1 0.6000000238418579 0
          0.6000000238418579 1 0.699999988079071 0 0.699999988079071 1
          0.800000011920929 0 0.800000011920929 1 0.8999999761581421 0
          0.8999999761581421 1 0.5 0 0.4755282700061798 -0.15450850129127502
          0.404508501291275 -0.29389262199401855 0.29389262199401855 -0.404508501291275 0.15450850129127502 -0.4755282700061798
          -1.0255171711825994e-10 -0.5 -0.15450850129127502 -0.4755282700061798 -0.29389262199401855 -0.404508501291275
          -0.404508501291275 -0.29389262199401855 -0.4755282700061798 -0.15450850129127502 -0.5 2.051034342365199e-10
          -0.4755282700061798 0.15450850129127502 -0.404508501291275 0.29389262199401855 -0.29389262199401855 0.404508501291275
          -0.15450850129127502 0.4755282700061798 3.0765515135477983e-10 0.5 0.15450850129127502 0.4755282700061798
          0.29389262199401855 0.404508501291275 0.404508501291275 0.29389262199401855 0.4755282700061798 0.15450850129127502
          0.4755282700061798 0.15450850129127502 0.404508501291275 0.29389262199401855 0.29389262199401855 0.404508501291275
          0.15450850129127502 0.4755282700061798 3.0765515135477983e-10 0.5 -0.15450850129127502 0.4755282700061798
          -0.29389262199401855 0.404508501291275 -0.404508501291275 0.29389262199401855 -0.4755282700061798 0.15450850129127502
          -0.5 2.051034342365199e-10 -0.4755282700061798 -0.15450850129127502 -0.404508501291275 -0.29389262199401855
          -0.29389262199401855 -0.404508501291275 -0.15450850129127502 -0.4755282700061798 -1.0255171711825994e-10 -0.5
          0.15450850129127502 -0.4755282700061798 0.29389262199401855 -0.404508501291275 0.404508501291275 -0.29389262199401855
          0.4755282700061798 -0.15450850129127502 0.5 0
          <InformationKey name="L2_NORM_RANGE" location="vtkDataArray" length="2">
            <Value index="0">
              0
            </Value>
            <Value index="1">
              1.4142135624
            </Value>
          </InformationKey>
        </DataArray>
      </PointData>
      <CellData>
      </CellData>
      <Points>
        <DataArray type="Float32" Name="Array 105E75C8" NumberOfComponents="3" format="ascii" RangeMin="0.7071067811865476" RangeMax="0.7071067900581539">
          0.5 0.5 0 0.5 -0.5 0
          0.4755282700061798 0.5 -0.15450850129127502 0.4755282700061798 -0.5 -0.15450850129127502
          0.404508501291275 0.5 -0.29389262199401855 0.404508501291275 -0.5 -0.29389262199401855
          0.29389262199401855 0.5 -0.404508501291275 0.29389262199401855 -0.5 -0.404508501291275
          0.15450850129127502 0.5 -0.4755282700061798 0.15450850129127502 -0.5 -0.4755282700061798
          -1.0255171711825994e-10 0.5 -0.5 -1.0255171711825994e-10 -0.5 -0.5
          -0.15450850129127502 0.5 -0.4755282700061798 -0.15450850129127502 -0.5 -0.4755282700061798
          -0.29389262199401855 0.5 -0.404508501291275 -0.29389262199401855 -0.5 -0.404508501291275
          -0.404508501291275 0.5 -0.29389262199401855 -0.404508501291275 -0.5 -0.29389262199401855
          -0.4755282700061798 0.5 -0.15450850129127502 -0.4755282700061798 -0.5 -0.15450850129127502
          -0.5 0.5 2.051034342365199e-10 -0.5 -0.5 2.051034342365199e-10
          -0.4755282700061798 0.5 0.15450850129127502 -0.4755282700061798 -0.5 0.15450850129127502
          -0.404508501291275 0.5 0.29389262199401855 -0.404508501291275 -0.5 0.29389262199401855
          -0.29389262199401855 0.5 0.404508501291275 -0.29389262199401855 -0.5 0.404508501291275
          -0.15450850129127502 0.5 0.4755282700061798 -0.15450850129127502 -0.5 0.4755282700061798
          3.0765515135477983e-10 0.5 0.5 3.0765515135477983e-10 -0.5 0.5
          0.15450850129127502 0.5 0.4755282700061798 0.15450850129127502 -0.5 0.4755282700061798
          0.29389262199401855 0.5 0.404508501291275 0.29389262199401855 -0.5 0.404508501291275
          0.404508501291275 0.5 0.29389262199401855 0.404508501291275 -0.5 0.29389262199401855
          0.4755282700061798 0.5 0.15450850129127502 0.4755282700061798 -0.5 0.15450850129127502
          0.5 0.5 0 0.4755282700061798 0.5 -0.15450850129127502
          0.404508501291275 0.5 -0.29389262199401855 0.29389262199401855 0.5 -0.404508501291275
          0.15450850129127502 0.5 -0.4755282700061798 -1.0255171711825994e-10 0.5 -0.5
          -0.15450850129127502 0.5 -0.4755282700061798 -0.29389262199401855 0.5 -0.404508501291275
          -0.404508501291275 0.5 -0.29389262199401855 -0.4755282700061798 0.5 -0.15450850129127502
          -0.5 0.5 2.051034342365199e-10 -0.4755282700061798 0.5 0.15450850129127502
          -0.404508501291275 0.5 0.29389262199401855 -0.29389262199401855 0.5 0.404508501291275
          -0.15450850129127502 0.5 0.4755282700061798 3.0765515135477983e-10 0.5 0.5
          0.15450850129127502 0.5 0.4755282700061798 0.29389262199401855 0.5 0.404508501291275
          0.404508501291275 0.5 0.29389262199401855 0.4755282700061798 0.5 0.15450850129127502
          0.4755282700061798 -0.5 0.15450850129127502 0.404508501291275 -0.5 0.29389262199401855
          0.29389262199401855 -0.5 0.404508501291275 0.15450850129127502 -0.5 0.4755282700061798
          3.0765515135477983e-10 -0.5 0.5 -0.15450850129127502 -0.5 0.4755282700061798
          -0.29389262199401855 -0.5 0.404508501291275 -0.404508501291275 -0.5 0.29389262199401855
          -0.4755282700061798 -0.5 0.15450850129127502 -0.5 -0.5 2.051034342365199e-10
          -0.4755282700061798 -0.5 -0.15450850129127502 -0.404508501291275 -0.5 -0.29389262199401855
          -0.29389262199401855 -0.5 -0.404508501291275 -0.15450850129127502 -0.5 -0.4755282700061798
          -1.0255171711825994e-10 -0.5 -0.5 0.15450850129127502 -0.5 -0.4755282700061798
          0.29389262199401855 -0.5 -0.404508501291275 0.404508501291275 -0.5 -0.29389262199401855
          0.4755282700061798 -0.5 -0.15450850129127502 0.5 -0.5 0
          <InformationKey name="L2_NORM_RANGE" location="vtkDataArray" length="2">
            <Value index="0">
              0.70710678119
            </Value>
            <Value index="1">
              0.70710679006
            </Value>
          </InformationKey>
        </DataArray>
      </Points>
      <Verts>
        <DataArray type="Int64" Name="connectivity" format="ascii" RangeMin="1e+299" RangeMax="-1e+299">
        </DataArray>
        <DataArray type="Int64" Name="offsets" format="ascii" RangeMin="1e+299" RangeMax="-1e+299">
        </DataArray>
      </Verts>
      <Lines>
        <DataArray type="Int64" Name="connectivity" format="ascii" RangeMin="1e+299" RangeMax="-1e+299">
        </DataArray>
        <DataArray type="Int64" Name="offsets" format="ascii" RangeMin="1e+299" RangeMax="-1e+299">
        </DataArray>
      </Lines>
      <Strips>
        <DataArray type="Int64" Name="connectivity" format="ascii" RangeMin="1e+299" RangeMax="-1e+299">
        </DataArray>
        <DataArray type="Int64" Name="offsets" format="ascii" RangeMin="1e+299" RangeMax="-1e+299">
        </DataArray>
      </Strips>
      <Polys>
        <DataArray type="Int32" Name="connectivity" format="ascii" RangeMin="0" RangeMax="79">
          0 1 3 2 2 3
          5 4 4 5 7 6
          6 7 9 8 8 9
          11 10 10 11 13 12
          12 13 15 14 14 15
          17 16 16 17 19 18
          18 19 21 20 20 21
          23 22 22 23 25 24
          24 25 27 26 26 27
          29 28 28 29 31 30
          30 31 33 32 32 33
          35 34 34 35 37 36
          36 37 39 38 38 39
          1 0 40 41 42 43
          44 45 46 47 48 49
          50 51 52 53 54 55
          56 57 58 59 60 61
          62 63 64 65 66 67
          68 69 70 71 72 73
          74 75 76 77 78 79
        </DataArray>
        <DataArray type="Int32" Name="offsets" format="ascii" RangeMin="4" RangeMax="120">
          4 8 12 16 20 24
          28 32 36 40 44 48
          52 56 60 64 68 72
          76 80 100 120
        </DataArray>
      </Polys>
    </Piece>
  </PolyData>
</VTKFile>
