<?xml version="1.0"?>
<VTKFile type="PolyData" version="0.1" byte_order="LittleEndian" header_type="UInt32" compressor="vtkZLibDataCompressor">
  <PolyData>
    <Piece NumberOfPoints="46" NumberOfVerts="0" NumberOfLines="0" NumberOfStrips="0" NumberOfPolys="88">
      <PointData Normals="Normals">
        <DataArray type="Float32" Name="Normals" NumberOfComponents="3" format="ascii" RangeMin="0.9999993985958756" RangeMax="1.0000005382529809">
          0.4658200144767761 0.7394890189170837 0.48597198724746704 -0.1130789965391159 0.9935830235481262 -0.0025629999581724405
          0.13144899904727936 0.9752569794654846 -0.17775200307369232 0.6413630247116089 0.720192015171051 0.2645319998264313
          0.249766007065773 -0.18583300709724426 0.9503070116043091 0.5913329720497131 -0.011076999828219414 0.8063510060310364
          0.06166600063443184 0.834758996963501 -0.5471519827842712 0.4755910038948059 -0.19720199704170227 0.8572779893875122
          0.6636859774589539 0.6328139901161194 0.39883100986480713 0.5345749855041504 0.6751260161399841 0.5083640217781067
          -0.6489239931106567 0.7317929863929749 -0.20826999843120575 0.974888026714325 0.1992660015821457 -0.09943100064992905
          -0.14571000635623932 0.755918025970459 -0.6382449865341187 0.3369460105895996 0.8243370056152344 -0.4549019932746887
          0.05043900012969971 0.579364001750946 -0.8135070204734802 -0.7357800006866455 0.6768190264701843 -0.023320000618696213
          -0.5480939745903015 0.8287699818611145 0.11284100264310837 0.14375999569892883 0.831902027130127 0.5359770059585571
          0.027667000889778137 0.6398739814758301 0.767982006072998 0.11044900119304657 0.9695820212364197 0.21842899918556213
          -0.6621729731559753 0.02218399941921234 0.7490220069885254 0.3956179916858673 -0.8329709768295288 0.3868409991264343
          0.3347170054912567 -0.8174030184745789 0.46884599328041077 0.12478400021791458 -0.9913719892501831 -0.040125999599695206
          -0.379054993391037 -0.6835539937019348 0.6237559914588928 0.10008800029754639 -0.5118809938430786 0.8532059788703918
          -0.14242200553417206 0.3125230073928833 -0.9391729831695557 0.7638409733772278 -0.5212209820747375 0.380623996257782
          0.5887640118598938 0.38697299361228943 -0.7096539735794067 0.4747689962387085 -0.09298399835824966 -0.8751850128173828
          -0.41971999406814575 0.38133201003074646 -0.8236629962921143 -0.27868300676345825 -0.32137998938560486 -0.9050139784812927
          0.14243100583553314 -0.6475120186805725 -0.7486259937286377 -0.5385010242462158 0.17340900003910065 -0.8245890140533447
          -0.7682530283927917 0.5988919734954834 -0.2260880023241043 -0.9787359833717346 -0.04550600051879883 0.20001399517059326
          0.42846399545669556 -0.8875219821929932 0.16948099434375763 0.005388000048696995 -0.9952700138092041 -0.09699700027704239
          -0.23489099740982056 -0.9562000036239624 -0.1746630072593689 -0.8350149989128113 -0.5260819792747498 0.16120700538158417
          0.06148900091648102 -0.8919010162353516 -0.4480299949645996 -0.6714239716529846 0.07196599990129471 -0.7375710010528564
          -0.6455979943275452 -0.33013299107551575 -0.6886330246925354 -0.7064390182495117 -0.4510509967803955 -0.545432984828949
          -0.14292199909687042 -0.9781169891357422 -0.15119600296020508 0.31073901057243347 -0.8839240074157715 -0.3494569957256317
          <InformationKey name="L2_NORM_RANGE" location="vtkDataArray" length="2">
            <Value index="0">
              0.9999993986
            </Value>
            <Value index="1">
              1.0000005383
            </Value>
          </InformationKey>
        </DataArray>
      </PointData>
      <CellData>
      </CellData>
      <Points>
        <DataArray type="Float32" Name="Points" NumberOfComponents="3" format="ascii" RangeMin="0.04472773109018082" RangeMax="0.05350888505285432">
          0.029128000140190125 -0.0023139999248087406 -0.03810099884867668 0.03300099819898605 -0.0027280000504106283 -0.039698000997304916
          0.02777400054037571 -0.001601999974809587 -0.03833400085568428 0.02811500057578087 -0.0014850000152364373 -0.03732199966907501
          0.03112499974668026 -0.004002999980002642 -0.03736500069499016 0.029301999136805534 -0.003845999948680401 -0.03695100173354149
          0.030403999611735344 -0.002455000067129731 -0.04005900025367737 0.031567998230457306 -0.0036869999021291733 -0.03751099854707718
          0.03276199847459793 -0.0028210000600665808 -0.03801799938082695 0.03325200080871582 -0.0026209999341517687 -0.038600001484155655
          0.03240799903869629 -0.003094000043347478 -0.03777100145816803 0.033298999071121216 -0.002643000101670623 -0.03924800083041191
          0.03236899897456169 -0.0029949999880045652 -0.041085999459028244 0.03289699926972389 -0.0032579998951405287 -0.041540998965501785
          0.027814999222755432 -0.0026489999145269394 -0.04066000133752823 0.026398999616503716 -0.0018469999777153134 -0.03869999945163727
          0.027010999619960785 -0.0013849999522790313 -0.037067998200654984 0.02741600014269352 -0.0015689999563619494 -0.03606100007891655
          0.027289999648928642 -0.0019450000254437327 -0.03557499870657921 0.027507999911904335 -0.0013099999632686377 -0.03659199923276901
          0.02741199918091297 -0.002974000060930848 -0.035218000411987305 0.0314520001411438 -0.004259000066667795 -0.03793200105428696
          0.02910899929702282 -0.004482999909669161 -0.03715800121426582 0.029662000015378 -0.00506999995559454 -0.04032300040125847
          0.027483999729156494 -0.004542000126093626 -0.035989999771118164 0.027509000152349472 -0.004155999980866909 -0.03564000129699707
          0.02931700088083744 -0.003481999970972538 -0.040716998279094696 0.033045001327991486 -0.003280000062659383 -0.03810400143265724
          0.03286299854516983 -0.003659999929368496 -0.041909001767635345 0.032485999166965485 -0.004188000224530697 -0.04228900000452995
          0.03093400038778782 -0.004395000170916319 -0.04148700088262558 0.029051000252366066 -0.0045010000467300415 -0.04064000025391579
          0.028694000095129013 -0.005288999993354082 -0.0403439998626709 0.026424000039696693 -0.003002000041306019 -0.04132800176739693
          0.02610900066792965 -0.0021559998858720064 -0.039771001785993576 0.026409000158309937 -0.0032579998951405287 -0.039434999227523804
          0.03182100132107735 -0.004226000048220158 -0.03977600112557411 0.02712699957191944 -0.0058639999479055405 -0.03971699997782707
          0.03045699931681156 -0.005078999791294336 -0.040773000568151474 0.026200000196695328 -0.005578000098466873 -0.039462000131607056
          0.032092999666929245 -0.0042489999905228615 -0.04260500147938728 0.03102800063788891 -0.004939999897032976 -0.0419900007545948
          0.030348999425768852 -0.004683999810367823 -0.04122599959373474 0.02595899999141693 -0.004846999887377024 -0.040497999638319016
          0.03079799935221672 -0.005200000014156103 -0.041262999176979065 0.03147900104522705 -0.004854999948292971 -0.04221099987626076
          <InformationKey name="L2_NORM_RANGE" location="vtkDataArray" length="2">
            <Value index="0">
              0.04472773109
            </Value>
            <Value index="1">
              0.053508885053
            </Value>
          </InformationKey>
        </DataArray>
      </Points>
      <Verts>
        <DataArray type="Int64" Name="connectivity" format="ascii" RangeMin="1e+299" RangeMax="-1e+299">
        </DataArray>
        <DataArray type="Int64" Name="offsets" format="ascii" RangeMin="1e+299" RangeMax="-1e+299">
        </DataArray>
      </Verts>
      <Lines>
        <DataArray type="Int64" Name="connectivity" format="ascii" RangeMin="1e+299" RangeMax="-1e+299">
        </DataArray>
        <DataArray type="Int64" Name="offsets" format="ascii" RangeMin="1e+299" RangeMax="-1e+299">
        </DataArray>
      </Lines>
      <Strips>
        <DataArray type="Int64" Name="connectivity" format="ascii" RangeMin="1e+299" RangeMax="-1e+299">
        </DataArray>
        <DataArray type="Int64" Name="offsets" format="ascii" RangeMin="1e+299" RangeMax="-1e+299">
        </DataArray>
      </Strips>
      <Polys>
        <DataArray type="Int32" Name="connectivity" format="ascii" RangeMin="0" RangeMax="45">
          0 1 2 2 3 0
          4 1 0 0 3 5
          5 4 0 1 6 2
          1 4 7 8 9 1
          10 8 1 1 9 11
          1 7 10 1 12 6
          1 11 13 13 12 1
          2 6 14 14 15 2
          16 2 15 16 3 2
          3 17 18 3 19 17
          20 3 18 3 20 5
          19 3 16 4 21 7
          4 5 22 4 22 23
          21 4 23 5 24 22
          5 25 24 25 5 20
          26 6 12 6 26 14
          8 10 7 8 7 9
          7 27 9 27 7 21
          27 11 9 11 28 13
          28 11 29 27 29 11
          12 13 28 12 28 29
          30 12 29 30 26 12
          26 31 14 14 32 33
          14 34 15 34 14 33
          32 14 31 35 15 34
          15 20 16 20 15 35
          17 19 16 18 16 20
          17 16 18 24 25 20
          24 20 35 23 36 21
          21 36 27 23 22 32
          22 37 32 24 37 22
          31 23 32 38 23 31
          23 38 36 39 24 35
          24 39 37 31 26 30
          29 27 36 29 36 40
          40 41 29 29 41 30
          42 31 30 30 41 42
          38 31 42 32 43 33
          32 37 43 35 33 43
          35 34 33 43 39 35
          38 44 36 36 44 45
          40 36 45 37 39 43
          44 38 42 40 45 41
          44 42 41 44 41 45
        </DataArray>
        <DataArray type="Int32" Name="offsets" format="ascii" RangeMin="3" RangeMax="264">
          3 6 9 12 15 18
          21 24 27 30 33 36
          39 42 45 48 51 54
          57 60 63 66 69 72
          75 78 81 84 87 90
          93 96 99 102 105 108
          111 114 117 120 123 126
          129 132 135 138 141 144
          147 150 153 156 159 162
          165 168 171 174 177 180
          183 186 189 192 195 198
          201 204 207 210 213 216
          219 222 225 228 231 234
          237 240 243 246 249 252
          255 258 261 264
        </DataArray>
      </Polys>
    </Piece>
  </PolyData>
</VTKFile>
