<?xml version="1.0"?>
<VTKFile type="PolyData" version="0.1" byte_order="LittleEndian" header_type="UInt32" compressor="vtkZLibDataCompressor">
  <PolyData>
    <Piece NumberOfPoints="53" NumberOfVerts="0" NumberOfLines="0" NumberOfStrips="0" NumberOfPolys="102">
      <PointData Normals="Normals">
        <DataArray type="Float32" Name="Normals" NumberOfComponents="3" format="ascii" RangeMin="0.9999994295095498" RangeMax="1.0000005741414246">
          -0.08733800053596497 0.9871100187301636 0.13411200046539307 0.8900740146636963 0.41778698563575745 0.1822669953107834
          0.24145899713039398 0.9422159790992737 -0.23221999406814575 0.048416998237371445 0.8777210116386414 0.47672000527381897
          -0.01003200002014637 0.62568199634552 0.7800139784812927 -0.06697099655866623 0.7742720246315002 -0.629298985004425
          0.19602499902248383 0.19700899720191956 -0.9606050252914429 0.8556609749794006 0.015081999823451042 -0.517316997051239
          0.7152929902076721 -0.6882420182228088 -0.12115699797868729 0.8187249898910522 -0.055590998381376266 0.5714880228042603
          0.36987799406051636 0.8844850063323975 0.28438600897789 -0.015128999948501587 0.23917999863624573 0.9708570241928101
          0.23361200094223022 0.19956399500370026 0.9516299962997437 -0.3430129885673523 0.17858199775218964 0.922199010848999
          -0.45734599232673645 0.3485470116138458 0.8181380033493042 0.45507699251174927 -0.5937219858169556 -0.6636260151863098
          0.5238670110702515 0.7214980125427246 -0.4527739882469177 0.5455800294876099 0.3235290050506592 -0.7730919718742371
          0.331743985414505 -0.5393279790878296 -0.7739970088005066 0.1332540065050125 -0.9390329718589783 -0.31695500016212463
          0.3103330135345459 -0.8844280242919922 -0.3485409915447235 0.20374299585819244 -0.9302070140838623 -0.305292010307312
          0.12009599804878235 -0.990431010723114 -0.06800000369548798 0.4111270010471344 -0.8575429916381836 -0.3091840147972107
          0.5188469886779785 -0.522383987903595 0.6766930222511292 0.270238995552063 -0.7716969847679138 0.5757219791412354
          0.4113749861717224 0.9073870182037354 -0.08613300323486328 0.2013619989156723 0.5957210063934326 0.7775409817695618
          -0.008224000222980976 0.8878989815711975 0.4599649906158447 0.17416700720787048 -0.25433599948883057 0.951304018497467
          0.3314250111579895 0.06516899913549423 0.9412279725074768 -0.15536600351333618 -0.6806769967079163 0.715919017791748
          -0.4217950105667114 -0.33526599407196045 0.8424280285835266 -0.4371339976787567 0.6687999963760376 -0.6013489961624146
          0.5536280274391174 -0.18258599936962128 -0.8125010132789612 0.19282199442386627 -0.7641729712486267 -0.6155149936676025
          -0.025544000789523125 -0.9803429841995239 -0.1956380009651184 0.29466500878334045 -0.847495973110199 0.4415009915828705
          0.38490501046180725 -0.9228180050849915 0.015967000275850296 -0.4994310140609741 0.8570640087127686 0.1265300065279007
          -0.06799899786710739 0.9850540161132812 -0.1582539975643158 0.13618099689483643 0.6193810105323792 0.7731900215148926
          -0.8949180245399475 0.41692501306533813 0.1590459942817688 0.2637229859828949 -0.3046739995479584 0.9152179956436157
          -0.40092799067497253 0.1516450047492981 0.9034709930419922 -0.2883870005607605 -0.06916700303554535 -0.9550129771232605
          -0.9703159928321838 -0.05883299931883812 -0.2345760017633438 -0.9882360100746155 0.11334100365638733 -0.10267700254917145
          -0.34327200055122375 -0.6639440059661865 -0.6643369793891907 -0.06054700165987015 -0.8610489964485168 0.5049049854278564
          -0.8188920021057129 -0.5536730289459229 -0.15119999647140503 -0.9475110173225403 -0.1535779982805252 -0.2804209887981415
          -0.5684340000152588 -0.5501059889793396 0.6117730140686035
          <InformationKey name="L2_NORM_RANGE" location="vtkDataArray" length="2">
            <Value index="0">
              0.99999942951
            </Value>
            <Value index="1">
              1.0000005741
            </Value>
          </InformationKey>
        </DataArray>
      </PointData>
      <CellData>
      </CellData>
      <Points>
        <DataArray type="Float32" Name="Points" NumberOfComponents="3" format="ascii" RangeMin="0.04829382164356463" RangeMax="0.05591988176981532">
          0.01824299991130829 -0.0025110000278800726 0.05174800008535385 0.019068000838160515 -0.0026110000908374786 0.0514490008354187
          0.018866999074816704 -0.0024419999681413174 0.050453998148441315 0.016986999660730362 -0.002580000087618828 0.05167900025844574
          0.018650000914931297 -0.002894999925047159 0.052111998200416565 0.017721999436616898 -0.0032709999941289425 0.049035001546144485
          0.0166849996894598 -0.003722999943420291 0.04884999990463257 0.018874000757932663 -0.002882000058889389 0.04977799952030182
          0.018636999651789665 -0.004011999815702438 0.05215900018811226 0.01892399974167347 -0.003507999936118722 0.052344001829624176
          0.01497500017285347 -0.0017999999690800905 0.051454998552799225 0.016770999878644943 -0.003008000086992979 0.051881998777389526
          0.01834999956190586 -0.0036230001132935286 0.052698999643325806 0.01779099926352501 -0.003973000217229128 0.05273900181055069
          0.016975000500679016 -0.004461999982595444 0.05209299921989441 0.017305999994277954 -0.0037849999498575926 0.04875599965453148
          0.014932000078260899 -0.0023759999312460423 0.04945199936628342 0.014809999614953995 -0.003381999908015132 0.04838600009679794
          0.014684000052511692 -0.004071999806910753 0.04847300052642822 0.017224999144673347 -0.004044000059366226 0.04927400127053261
          0.015073000453412533 -0.00520200002938509 0.05047899857163429 0.016961000859737396 -0.00430600019171834 0.050367001444101334
          0.01699800044298172 -0.00521400012075901 0.051798999309539795 0.017805000767111778 -0.004081000108271837 0.05077100172638893
          0.01828099973499775 -0.004296999890357256 0.052545998245477676 0.017566999420523643 -0.004767999984323978 0.05244800075888634
          0.012928999960422516 -0.0005489999894052744 0.049428001046180725 0.014395000413060188 -0.0018479999853298068 0.051701001822948456
          0.012954000383615494 -0.0012359999818727374 0.050985999405384064 0.014739999547600746 -0.004608000162988901 0.05180099979043007
          0.014188000001013279 -0.00344299990683794 0.0521249994635582 0.016188999637961388 -0.004763000179082155 0.05190100148320198
          0.016808999702334404 -0.004972000140696764 0.05220700055360794 0.012350999750196934 -0.0009340000106021762 0.04722699895501137
          0.013736999593675137 -0.0031999999191612005 0.04761800169944763 0.013116000220179558 -0.004561999812722206 0.048312000930309296
          0.012678000144660473 -0.006093999836593866 0.05130400136113167 0.015472999773919582 -0.005156999919563532 0.051309000700712204
          0.016370000317692757 -0.004912999924272299 0.05112500116229057 0.012138999998569489 -0.0005879999953322113 0.04909899830818176
          0.012420999817550182 -0.0004820000031031668 0.04845700040459633 0.012260000221431255 -0.002392000053077936 0.05282299965620041
          0.011359999887645245 -0.0019480000482872128 0.05200999975204468 0.012562000192701817 -0.004825000185519457 0.052834998816251755
          0.011688999831676483 -0.0032130000181496143 0.053383998572826385 0.012511000037193298 -0.001981999957934022 0.0466030016541481
          0.012222999706864357 -0.0037249999586492777 0.04778800159692764 0.012299000285565853 -0.003495000069960952 0.048298001289367676
          0.012536000460386276 -0.00381499994546175 0.04732299968600273 0.012269999831914902 -0.005876999814063311 0.05221199989318848
          0.011688999831676483 -0.005708000157028437 0.05122999846935272 0.011819999665021896 -0.004662000108510256 0.049587998539209366
          0.011494000442326069 -0.005375999957323074 0.05247500166296959
          <InformationKey name="L2_NORM_RANGE" location="vtkDataArray" length="2">
            <Value index="0">
              0.048293821644
            </Value>
            <Value index="1">
              0.05591988177
            </Value>
          </InformationKey>
        </DataArray>
      </Points>
      <Verts>
        <DataArray type="Int64" Name="connectivity" format="ascii" RangeMin="1e+299" RangeMax="-1e+299">
        </DataArray>
        <DataArray type="Int64" Name="offsets" format="ascii" RangeMin="1e+299" RangeMax="-1e+299">
        </DataArray>
      </Verts>
      <Lines>
        <DataArray type="Int64" Name="connectivity" format="ascii" RangeMin="1e+299" RangeMax="-1e+299">
        </DataArray>
        <DataArray type="Int64" Name="offsets" format="ascii" RangeMin="1e+299" RangeMax="-1e+299">
        </DataArray>
      </Lines>
      <Strips>
        <DataArray type="Int64" Name="connectivity" format="ascii" RangeMin="1e+299" RangeMax="-1e+299">
        </DataArray>
        <DataArray type="Int64" Name="offsets" format="ascii" RangeMin="1e+299" RangeMax="-1e+299">
        </DataArray>
      </Strips>
      <Polys>
        <DataArray type="Int32" Name="connectivity" format="ascii" RangeMin="0" RangeMax="52">
          0 1 2 3 4 0
          0 5 6 5 0 2
          0 6 3 1 0 4
          7 2 1 1 8 7
          1 4 9 9 8 1
          5 2 7 10 3 6
          11 3 10 11 4 3
          12 4 13 4 14 13
          4 11 14 12 9 4
          15 6 5 15 5 7
          16 6 17 6 16 10
          17 6 18 15 19 6
          18 6 20 21 6 19
          6 21 20 15 7 8
          8 22 23 8 23 15
          24 25 8 9 24 8
          25 22 8 12 24 9
          16 26 10 27 11 10
          10 28 27 26 28 10
          29 11 30 30 11 27
          11 29 31 14 11 31
          12 13 24 32 13 14
          13 25 24 32 25 13
          14 31 32 15 23 19
          17 26 16 26 17 33
          34 33 17 34 17 18
          18 20 35 34 18 35
          23 21 19 20 21 23
          36 20 37 36 35 20
          37 20 38 20 23 38
          23 22 31 25 32 22
          31 22 32 38 23 31
          39 26 40 39 28 26
          26 33 40 41 27 28
          41 30 27 42 28 39
          41 28 42 29 43 37
          30 43 29 29 37 31
          41 44 30 43 30 44
          38 31 37 33 39 40
          45 33 34 46 33 45
          33 46 47 42 39 33
          33 47 42 35 48 34
          48 45 34 48 35 36
          49 36 37 48 36 50
          50 36 49 49 37 43
          41 42 44 50 44 42
          50 42 51 51 42 47
          44 52 43 52 49 43
          52 44 50 45 48 46
          46 48 51 47 46 51
          51 48 50 52 50 49
        </DataArray>
        <DataArray type="Int32" Name="offsets" format="ascii" RangeMin="3" RangeMax="306">
          3 6 9 12 15 18
          21 24 27 30 33 36
          39 42 45 48 51 54
          57 60 63 66 69 72
          75 78 81 84 87 90
          93 96 99 102 105 108
          111 114 117 120 123 126
          129 132 135 138 141 144
          147 150 153 156 159 162
          165 168 171 174 177 180
          183 186 189 192 195 198
          201 204 207 210 213 216
          219 222 225 228 231 234
          237 240 243 246 249 252
          255 258 261 264 267 270
          273 276 279 282 285 288
          291 294 297 300 303 306
        </DataArray>
      </Polys>
    </Piece>
  </PolyData>
</VTKFile>
