<?xml version="1.0"?>
<VTKFile type="PolyData" version="0.1" byte_order="LittleEndian" header_type="UInt32" compressor="vtkZLibDataCompressor">
  <PolyData>
    <Piece NumberOfPoints="456" NumberOfVerts="0" NumberOfLines="0" NumberOfStrips="0" NumberOfPolys="908">
      <PointData Normals="Normals">
        <DataArray type="Float32" Name="Normals" NumberOfComponents="3" format="ascii" RangeMin="0.9999992478577173" RangeMax="1.000000657932668">
          -0.26149100065231323 0.5946879982948303 0.7602419853210449 0.08053600043058395 0.3413049876689911 0.9364960193634033
          0.0018019999843090773 0.7702649831771851 0.6377220153808594 -0.02149900048971176 0.8506270051002502 0.5253300070762634
          -0.3634850084781647 0.2909199893474579 0.8850110173225403 -0.345770001411438 0.7917389869689941 0.5035799741744995
          -0.5899159908294678 0.5205090045928955 0.6173080205917358 0.29467299580574036 0.7344840168952942 0.6113110184669495
          -0.2811560034751892 0.020008999854326248 0.9594539999961853 -0.0498340018093586 -0.12680000066757202 0.9906759858131409
          0.29420799016952515 0.012870999984443188 0.9556549787521362 0.5034360289573669 0.2210090011358261 0.8352879881858826
          0.485168993473053 0.48285698890686035 0.7290130257606506 0.34592100977897644 0.8192409873008728 0.4573650062084198
          -0.060029998421669006 0.9490960240364075 0.30921199917793274 0.28654301166534424 0.909995973110199 0.29966598749160767
          -0.6261720061302185 0.08694999665021896 0.7748219966888428 -0.3908799886703491 0.8486570119857788 0.3563629984855652
          -0.6416159868240356 0.6628440022468567 0.38596200942993164 -0.807183027267456 0.28533700108528137 0.5167580246925354
          0.6617670059204102 0.5579699873924255 0.5007330179214478 -0.39332500100135803 -0.23670199513435364 0.8884069919586182
          -0.01913600042462349 -0.32067298889160156 0.9469969868659973 0.38472700119018555 -0.20986400544643402 0.898855984210968
          0.6003860235214233 -0.07303600013256073 0.7963680028915405 0.7405710220336914 0.20202000439167023 0.6408920288085938
          0.6031829714775085 0.7523059844970703 0.2649640142917633 -0.1783130019903183 0.981456995010376 0.07032699882984161
          0.1299930065870285 0.9907050132751465 0.040077999234199524 0.40758800506591797 0.9131180047988892 0.009410999715328217
          -0.6923180222511292 -0.16774499416351318 0.7018240094184875 -0.480567991733551 0.8674759864807129 0.128602996468544
          -0.7525290250778198 0.6226620078086853 0.2144560068845749 -0.9172930121421814 0.26688700914382935 0.295540988445282
          -0.8774999976158142 -0.12696799635887146 0.46246400475502014 0.8430820107460022 0.44851401448249817 0.29673001170158386
          -0.37427300214767456 -0.4304780066013336 0.8213449716567993 0.018275000154972076 -0.5172140002250671 0.8556609749794006
          0.45123499631881714 -0.44650599360466003 0.7726699709892273 0.7417460083961487 -0.21354199945926666 0.6357769966125488
          0.8816779851913452 0.08576299995183945 0.46399199962615967 0.6861810088157654 0.7269729971885681 -0.025805000215768814
          -0.19423499703407288 0.9591090083122253 -0.20586800575256348 -0.49397701025009155 0.8545380234718323 -0.16047100722789764
          0.09321600198745728 0.9650560021400452 -0.24490399658679962 0.40145400166511536 0.8646559715270996 -0.3020020127296448
          -0.634975016117096 -0.47376200556755066 0.6102100014686584 -0.7823100090026855 0.6192700266838074 -0.0670429989695549
          -0.9692609906196594 0.24369199573993683 0.03387000039219856 -0.9618369936943054 -0.19675399363040924 0.19014999270439148
          -0.7242410182952881 -0.49845901131629944 0.47645899653434753 0.9830499887466431 0.08434499800205231 0.16278299689292908
          0.8979229927062988 0.4385730028152466 -0.03724699839949608 -0.27562201023101807 -0.6443780064582825 0.7133079767227173
          0.17943699657917023 -0.6860190033912659 0.7051100134849548 0.5874050259590149 -0.5625270009040833 0.581824004650116
          0.8625320196151733 -0.2698020040988922 0.428070992231369 0.7006880044937134 0.6230310201644897 -0.3476620018482208
          -0.49741700291633606 0.792743980884552 -0.35232600569725037 -0.1876389980316162 0.8816580176353455 -0.4329789876937866
          -0.8049690127372742 0.5522419810295105 -0.2169180065393448 0.12467499822378159 0.8472340106964111 -0.5163819789886475
          0.4223270118236542 0.6840919852256775 -0.5946919918060303 -0.3419809937477112 -0.7459949851036072 0.5714370012283325
          -0.9767299890518188 0.21361100673675537 -0.019217999652028084 -0.9685289859771729 -0.21951699256896973 0.11731799691915512
          -0.7392640113830566 -0.6182770133018494 0.2668760120868683 -0.32791900634765625 -0.8314650058746338 0.4484820067882538
          0.9927819967269897 -0.104264996945858 -0.059262000024318695 0.9213489890098572 0.26598700881004333 -0.28349000215530396
          0.15682800114154816 -0.7734959721565247 0.6140919923782349 0.5661560297012329 -0.7117919921875 0.4157150089740753
          0.8643940091133118 -0.4660030007362366 0.188851997256279 0.6583179831504822 0.41178300976753235 -0.6301209926605225
          -0.3275099992752075 0.72297602891922 -0.6083120107650757 -0.648468017578125 0.5683209896087646 -0.5064600110054016
          -0.06489600241184235 0.7161539793014526 -0.6949189901351929 -0.8577039837837219 0.28957599401474 -0.4248409867286682
          0.22429099678993225 0.5844079852104187 -0.7798470258712769 0.42983001470565796 0.345194011926651 -0.8343179821968079
          0.10131300240755081 -0.8682469725608826 0.4856779873371124 -0.9823129773139954 0.013515000231564045 -0.18675899505615234
          -0.8583189845085144 -0.5029640197753906 -0.1015629991889 -0.5297840237617493 -0.8481320142745972 -0.000859999970998615
          -0.28780001401901245 -0.9527770280838013 0.09688600152730942 0.911562979221344 -0.2705419957637787 -0.3096129894256592
          0.8554859757423401 0.07718200236558914 -0.5120409727096558 0.6216830015182495 -0.7035530209541321 0.3442719876766205
          0.8234699964523315 -0.5668550133705139 0.02391899935901165 0.5978540182113647 0.009790999814867973 -0.8015450239181519
          -0.33088600635528564 0.3008840084075928 -0.8944180011749268 -0.5741770267486572 0.35662201046943665 -0.7369809746742249
          -0.7564589977264404 0.13191600143909454 -0.6405990123748779 -0.17953099310398102 0.2420250028371811 -0.9535160064697266
          -0.880761981010437 -0.22668200731277466 -0.4157800078392029 0.14554299414157867 0.21366499364376068 -0.9660040140151978
          0.4346030056476593 -0.012703999876976013 -0.9005330204963684 -0.14717400074005127 -0.9829710125923157 0.11003699898719788
          0.13528700172901154 -0.9893770217895508 0.05319799855351448 -0.7230150103569031 -0.6907520294189453 -0.01050500012934208
          -0.3748840093612671 -0.9112399816513062 0.17059700191020966 -0.19234499335289001 -0.9763529896736145 0.0986810028553009
          0.7067080140113831 -0.6098759770393372 -0.3586300015449524 0.7254559993743896 -0.30911698937416077 -0.6149470210075378
          0.4611240029335022 -0.8855609893798828 -0.056095998734235764 0.5789570212364197 -0.34606900811195374 -0.7382720112800598
          -0.663087010383606 0.20207999646663666 -0.720749020576477 -0.4213410019874573 0.3619979918003082 -0.8315219879150391
          -0.9476640224456787 -0.06967300176620483 -0.3115749955177307 -0.09189300239086151 0.4645319879055023 -0.8807759881019592
          -0.8969550132751465 -0.4010379910469055 0.18612200021743774 0.490090012550354 0.20987799763679504 -0.8460279703140259
          0.05765200033783913 -0.9978989958763123 0.029575999826192856 0.2777029871940613 -0.9444159865379333 -0.17595399916172028
          -0.4300220012664795 -0.6556869745254517 0.6206089854240417 0.1497340053319931 -0.8404679894447327 0.5207610130310059
          0.48715901374816895 -0.7384179830551147 -0.46627798676490784 0.817550003528595 -0.18936499953269958 -0.5438309907913208
          -0.7206779718399048 0.6437249779701233 -0.2573759853839874 -0.9693779945373535 0.2348880022764206 -0.07165499776601791
          -0.04320099949836731 0.9265810251235962 -0.37360599637031555 -0.9612650275230408 -0.05625100061297417 0.2698250114917755
          0.5722100138664246 0.7198749780654907 -0.39288100600242615 -0.7002589702606201 -0.19500300288200378 0.6867390275001526
          0.961667001247406 0.1931149959564209 -0.19468499720096588 0.6543790102005005 -0.7438330054283142 0.13601799309253693
          0.8058590292930603 -0.5130810141563416 -0.2955330014228821 0.00023099999816622585 -0.4513089954853058 0.8923680186271667
          0.628216028213501 -0.48125898838043213 0.6113380193710327 0.9742090106010437 -0.19300700724124908 -0.11689800024032593
          -0.1458510011434555 0.987155020236969 0.06521099805831909 -0.7288690209388733 0.6732069849967957 0.12466800212860107
          -0.9513189792633057 0.29510799050331116 0.08889800310134888 -0.9613810181617737 0.17937099933624268 0.20874199271202087
          0.519012987613678 0.8546640276908875 -0.013260000385344028 -0.8352270126342773 0.06999900192022324 0.5454319715499878
          0.8700069785118103 0.4878219962120056 -0.07154099643230438 -0.40455999970436096 -0.09046900272369385 0.9100250005722046
          0.9753749966621399 -0.12185700237751007 -0.18383200466632843 0.9494929909706116 -0.30546700954437256 0.0717800036072731
          0.43986499309539795 -0.3742780089378357 0.816353976726532 0.8749650120735168 -0.2649790048599243 0.40524300932884216
          0.9821119904518127 -0.16957099735736847 -0.08186700195074081 0.9457319974899292 -0.28451600670814514 -0.15697699785232544
          -0.06089299917221069 0.9495720267295837 0.30757999420166016 0.537617027759552 0.8410900235176086 0.05945900082588196
          -0.38018301129341125 0.5157979726791382 0.7677320241928101 -0.7306380271911621 0.3028840124607086 0.6119059920310974
          -0.6326320171356201 0.5487639904022217 0.5464749932289124 -0.7765210270881653 0.3149609863758087 0.5457239747047424
          0.8067060112953186 0.5285149812698364 -0.2643809914588928 -0.7638649940490723 0.24333299696445465 0.5977460145950317
          0.9127060174942017 -0.033668000251054764 -0.4072279930114746 -0.25554901361465454 0.19375300407409668 0.9471819996833801
          0.9460790157318115 -0.19773900508880615 -0.25658100843429565 0.9214879870414734 -0.25064799189567566 -0.29670798778533936
          0.5479779839515686 -0.2816750109195709 0.7876409888267517 0.8601149916648865 -0.17577700316905975 0.47885799407958984
          0.9905179738998413 -0.0736590027809143 -0.11597099900245667 0.16468800604343414 0.9056329727172852 0.3907780051231384
          0.4328179955482483 0.8767420053482056 -0.2097409963607788 0.756380021572113 0.3452039957046509 -0.5556290149688721
          0.42827901244163513 0.33759400248527527 0.83821702003479 0.1965080052614212 -0.1273840069770813 0.9721930027008057
          0.14248299598693848 0.3271310031414032 0.9341750144958496 -0.2647649943828583 0.4142810106277466 0.8707870244979858
          -0.6473590135574341 0.3182939887046814 0.6925420165061951 0.8555529713630676 -0.05453899875283241 -0.514835000038147
          -0.5395349860191345 0.5519689917564392 0.6357920169830322 -0.46763598918914795 0.6457489728927612 0.6035929918289185
          0.9464190006256104 -0.09057699888944626 -0.30997800827026367 0.8949059844017029 -0.17626400291919708 -0.4099699854850769
          0.19662000238895416 0.2963609993457794 0.9346179962158203 0.913785994052887 -0.17175300419330597 -0.3680979907512665
          0.9335989952087402 -0.12620000541210175 -0.3353610038757324 0.6136720180511475 -0.24407899379730225 0.7508879899978638
          0.5216839909553528 -0.16301000118255615 0.8374210000038147 0.9264749884605408 -0.00981799978762865 0.3762289881706238
          0.2375209927558899 0.9554420113563538 -0.17525599896907806 0.418938010931015 0.3583419919013977 -0.8343150019645691
          0.6645500063896179 0.02349800057709217 -0.7468739748001099 0.13773900270462036 0.8993620276451111 0.4149419963359833
          0.07291900366544724 0.12909400463104248 0.9889479875564575 -0.1948069930076599 0.10312700271606445 0.9754049777984619
          -0.5508720278739929 0.08772200345993042 0.8299670219421387 -0.7193319797515869 0.06720399856567383 0.6914079785346985
          -0.8363779783248901 0.37802600860595703 0.39694899320602417 0.8757039904594421 -0.24034099280834198 -0.4187830090522766
          0.8352059721946716 -0.09695500135421753 -0.5413230061531067 -0.6218420267105103 0.5585209727287292 0.5489689707756042
          -0.2228810042142868 0.24914200603961945 0.9424710273742676 0.982375979423523 0.1358499974012375 -0.1283860057592392
          0.9112859964370728 0.04091800004243851 -0.4097369909286499 0.860480010509491 -0.09989000111818314 -0.4995959997177124
          0.6272289752960205 -0.204258993268013 0.7515730261802673 0.985605001449585 -0.0030559999868273735 0.16903899610042572
          0.5438830256462097 -0.31425800919532776 0.7780960202217102 0.3451020121574402 -0.14016999304294586 0.928039014339447
          0.5574849843978882 -0.0009529999806545675 0.8301860094070435 -0.016683999449014664 0.6724159717559814 -0.7399849891662598
          -0.34665799140930176 0.9045630097389221 -0.24817900359630585 0.2506229877471924 0.24152199923992157 -0.9374729990959167
          0.5822259783744812 0.19064000248908997 -0.7903609871864319 -0.794510006904602 0.5764619708061218 0.19090500473976135
          -0.8785579800605774 0.01608400046825409 0.47736600041389465 -0.9383180141448975 -0.03733300045132637 0.3437519967556
          -0.9293450117111206 -0.2191919982433319 0.297105997800827 -0.9614800214767456 -0.2307170033454895 0.14941799640655518
          -0.9972140192985535 0.02130099944770336 0.07148399949073792 0.6409729719161987 -0.3493350148200989 -0.6834610104560852
          0.7411450147628784 -0.1589220017194748 -0.6522639989852905 -0.6896049976348877 -0.20844900608062744 0.6935369968414307
          0.2960459887981415 -0.488756000995636 0.8206549882888794 0.9804189801216125 0.16822099685668945 -0.10237299650907516
          0.8940989971160889 0.15725399553775787 -0.41935399174690247 0.7282099723815918 -0.01843000017106533 -0.6851059794425964
          0.5529839992523193 -0.43674400448799133 0.7095509767532349 0.8620870113372803 0.06985100358724594 0.5019230246543884
          0.20245899260044098 -0.2642489969730377 0.9429649710655212 0.4122450053691864 -0.058501001447439194 0.9091929793357849
          -0.08286800235509872 0.42813798785209656 -0.8999059796333313 -0.5220190286636353 0.5677559971809387 -0.6365140080451965
          -0.8717859983444214 0.36498698592185974 -0.32676100730895996 0.25134798884391785 0.20684599876403809 -0.9455360174179077
          -0.9905660152435303 0.0777759999036789 -0.1128230020403862 -0.9660660028457642 -0.0765250027179718 -0.2466990053653717
          -0.913221001625061 -0.267192006111145 -0.3076300024986267 -0.9279410243034363 -0.35511699318885803 -0.11321499943733215
          -0.9320240020751953 -0.3541710078716278 0.07677099853754044 -0.9335209727287292 -0.31373199820518494 -0.17352400720119476
          -0.9002569913864136 -0.43355199694633484 0.03962700068950653 0.2590639889240265 -0.40344399213790894 -0.877564013004303
          0.3371039927005768 -0.3364430069923401 -0.879298985004425 -0.33035698533058167 -0.7735000252723694 0.5408899784088135
          0.12182500213384628 -0.6991789937019348 0.7044900059700012 0.9512140154838562 0.17641499638557434 -0.25311899185180664
          0.9041799902915955 0.14297500252723694 0.4025120139122009 0.7804179787635803 0.07103600353002548 -0.621209979057312
          0.5969280004501343 0.005425000097602606 -0.8022760152816772 0.22317500412464142 -0.1296370029449463 -0.9661200046539307
          0.38780999183654785 -0.03141799941658974 0.9212039709091187 -0.1442829966545105 -0.3091669976711273 0.939998984336853
          -0.32281801104545593 0.1863429993391037 -0.9279360175132751 -0.6775469779968262 0.1466750055551529 -0.7207059860229492
          -0.8298770189285278 0.053922999650239944 -0.5553349852561951 -0.16472700238227844 -0.29840099811553955 -0.9401180148124695
          -0.8170850276947021 -0.20713800191879272 -0.5380200147628784 -0.869763970375061 -0.4375790059566498 -0.22811299562454224
          -0.7490190267562866 -0.30749401450157166 -0.5868710279464722 -0.6799259781837463 -0.3305639922618866 -0.6545439958572388
          -0.9078029990196228 -0.4178850054740906 0.035583000630140305 -0.6183729767799377 -0.7406119704246521 0.2628850042819977
          -0.21630999445915222 -0.3862299919128418 -0.896681010723114 0.8931570053100586 0.16896000504493713 -0.41680100560188293
          0.89655601978302 0.21009600162506104 0.3899320065975189 0.36184701323509216 0.08101599663496017 0.9287099838256836
          0.020721999928355217 -0.0986889973282814 -0.994903028011322 0.5616359710693359 0.05837099999189377 -0.8253219723701477
          -0.3408200144767761 -0.21347199380397797 -0.9155719876289368 -0.4089899957180023 -0.14723500609397888 0.900583028793335
          -0.6721339821815491 -0.35424700379371643 0.6501889824867249 -0.5311890244483948 -0.21358400583267212 -0.819890022277832
          -0.6313570141792297 -0.285643994808197 -0.720969021320343 -0.8967570066452026 -0.24507099390029907 0.36846598982810974
          -0.8226690292358398 -0.2538909912109375 -0.508679986000061 0.7667719721794128 0.1492139995098114 -0.6243360042572021
          0.9587770104408264 0.20655299723148346 0.19514499604701996 0.10767100006341934 0.06732100248336792 0.9919049739837646
          -0.1027199998497963 -0.08459500223398209 -0.9911069869995117 0.03703400120139122 -0.060120999813079834 -0.9975039958953857
          -0.8275730013847351 -0.18200600147247314 0.5310329794883728 -0.8669660091400146 -0.2601790130138397 -0.4250609874725342
          0.6630380153656006 0.08130600303411484 -0.7441570162773132 0.9801040291786194 0.1905509978532791 0.05556200072169304
          0.20026299357414246 0.11472500115633011 0.973002016544342 -0.813169002532959 -0.11236199736595154 0.5710790157318115
          -0.1656470000743866 -0.14962899684906006 -0.9747679829597473 -0.9170770049095154 -0.25184598565101624 -0.3091000020503998
          0.6514530181884766 0.00802799966186285 -0.7586470246315002 0.9857620000839233 0.13219399750232697 0.10391499847173691
          0.23059000074863434 0.09962499886751175 0.9679380059242249 -0.8315520286560059 -0.07090400159358978 0.5509020090103149
          -0.9476289749145508 -0.18146300315856934 -0.26281100511550903 -0.2932009994983673 -0.1566769927740097 -0.9431250095367432
          0.6744890213012695 -0.015845999121665955 -0.7381150126457214 0.960116982460022 0.1224920004606247 0.25133800506591797
          0.10391899943351746 0.12651300430297852 0.986506998538971 -0.8586220145225525 -0.011463000439107418 0.5124809741973877
          -0.9439659714698792 -0.1269190013408661 -0.3046630024909973 -0.32397499680519104 -0.14221400022506714 -0.9353160262107849
          0.6946219801902771 -0.04163999855518341 -0.7181680202484131 0.9647160172462463 0.09443099796772003 0.24577699601650238
          0.13328400254249573 0.12693899869918823 0.9829149842262268 -0.8477219939231873 0.019812999293208122 0.5300710201263428
          -0.9300090074539185 -0.08876299858093262 -0.3566589951515198 -0.2733280062675476 -0.143886998295784 -0.9510980248451233
          0.5687130093574524 -0.09271500259637833 -0.8172940015792847 0.9893180131912231 0.03749600052833557 0.14087100327014923
          0.20300599932670593 0.1483059972524643 0.9678810238838196 -0.7862989902496338 0.07815100252628326 0.612883985042572
          -0.9522179961204529 -0.018988000229001045 -0.3048290014266968 -0.30722498893737793 -0.10148700326681137 -0.9462100267410278
          0.029684999957680702 -0.08777700364589691 -0.9956979751586914 0.8138840198516846 -0.06557600200176239 -0.5773149728775024
          0.9707540273666382 0.01670200005173683 0.23949599266052246 0.323498010635376 0.1484539955854416 0.9345110058784485
          -0.6203089952468872 0.12093699723482132 0.77497798204422 -0.9879000186920166 0.04738700017333031 0.14767199754714966
          -0.6931279897689819 -0.033587999641895294 -0.7200319766998291 -0.07980900257825851 -0.053644999861717224 -0.9953659772872925
          0.7304970026016235 -0.0803539976477623 -0.6781719923019409 0.991237998008728 -0.011776000261306763 0.13156400620937347
          0.4404500126838684 0.16337800025939941 0.882785975933075 -0.6380879878997803 0.19179999828338623 0.7456920146942139
          -0.9575160145759583 0.08817999809980392 0.27456799149513245 -0.8265259861946106 0.046376001089811325 -0.5609840154647827
          -0.10512299835681915 0.0886240005493164 -0.9905019998550415 0.6681659817695618 0.0035490000154823065 -0.7440040111541748
          0.9848960041999817 -0.031216999515891075 0.170306995511055 0.6554470062255859 0.16532599925994873 0.7369239926338196
          -0.5261819958686829 0.3842979967594147 0.7585830092430115 -0.962664008140564 0.1684339940547943 0.2119159996509552
          -0.9407860040664673 0.19379200041294098 -0.2781499922275543 -0.6036959886550903 0.5360080003738403 -0.5901240110397339
          0.19792599976062775 0.24179700016975403 -0.9499260187149048 0.8747919797897339 0.2442760020494461 -0.4184119999408722
          0.965569019317627 0.1404999941587448 0.2189449965953827 0.8005419969558716 0.16166700422763824 0.5770589709281921
          -0.029579000547528267 0.5408909916877747 0.8405719995498657 -0.9062110185623169 0.36771100759506226 0.20873400568962097
          -0.9263820052146912 0.35553601384162903 0.12414000183343887 0.1283230036497116 0.40751200914382935 -0.90413898229599
          -0.43291300535202026 0.790988028049469 -0.43234699964523315 -0.6322339773178101 0.7387949824333191 0.23337200284004211
          0.4129520058631897 0.19987699389457703 -0.8885489702224731 0.8195769786834717 0.179284006357193 -0.5441970229148865
          0.9808419942855835 0.10492400079965591 0.1641329973936081 0.9795759916305542 0.14238399267196655 0.141976997256279
          0.8220340013504028 0.3029229938983917 0.48217999935150146 0.14268800616264343 0.6954100131988525 0.7043049931526184
          0.7204750180244446 0.4249039888381958 0.5480629801750183 -0.8524379730224609 0.5141100287437439 0.09508299827575684
          -0.7980279922485352 0.5993800163269043 0.062415000051259995 -0.7632949948310852 0.6328719854354858 0.1298229992389679
          -0.3933129906654358 0.6849309802055359 -0.6133310198783875 0.04298499971628189 0.3442609906196594 -0.9378899931907654
          0.31912899017333984 0.0405610017478466 -0.9468430280685425 -0.5175110101699829 0.80799800157547 0.28164198994636536
          -0.6418079733848572 0.6003479957580566 0.47714298963546753 0.4173150062561035 -0.05067700147628784 -0.9073479771614075
          0.909883975982666 -0.13289299607276917 -0.3930020034313202 0.9192990064620972 -0.31703099608421326 0.23319800198078156
          0.9559670090675354 -0.2753030061721802 -0.10166700184345245 0.9967290163040161 0.06658300012350082 0.045813001692295074
          0.8242549896240234 0.19111700356006622 0.5329899787902832 0.7347949743270874 0.23015399277210236 0.638047993183136
          0.7040219902992249 0.016597000882029533 0.7099850177764893 0.36319100856781006 0.15069900453090668 0.9194470047950745
          -0.25556400418281555 0.6965439915657043 0.6704580187797546 -0.6088650226593018 0.7765669822692871 0.16194899380207062
          -0.5865030288696289 0.7984790205955505 -0.13581399619579315 -0.8746730089187622 0.4830549955368042 0.04006199911236763
          -0.36170899868011475 0.12939800322055817 -0.9232670068740845 -0.6809340119361877 0.5223240256309509 -0.513329029083252
          -0.7790290117263794 0.6267349720001221 -0.017785999923944473 -0.0583610013127327 -0.21245500445365906 -0.975426971912384
          0.22922000288963318 -0.27608001232147217 -0.9334020018577576 -0.561191976070404 0.20069099962711334 0.8029860258102417
          -0.715719997882843 0.43728500604629517 0.5445430278778076 -0.9558539986610413 -0.23872900009155273 0.17132200300693512
          0.26790401339530945 -0.21702800691127777 -0.9386829733848572 0.40517500042915344 -0.18323099613189697 -0.8956890106201172
          0.8241680264472961 -0.5283799767494202 -0.20386700332164764 0.7360000014305115 -0.6199690103530884 0.2719239890575409
          0.7328609824180603 -0.6566910147666931 -0.17796699702739716 0.7487859725952148 -0.3799310028553009 -0.5431129932403564
          0.9633849859237671 -0.2028139978647232 0.17537200450897217 0.7846450209617615 -0.022985000163316727 0.6195189952850342
          0.7631059885025024 0.031069999560713768 0.6455270051956177 0.6108599901199341 -0.20205099880695343 0.7655230164527893
          0.2560429871082306 -0.12121699750423431 0.9590349793434143 -0.2749300003051758 0.1943109929561615 0.9416239857673645
          -0.4645799994468689 0.7443619966506958 0.4796769917011261 -0.25761398673057556 0.9624699950218201 0.08535800129175186
          -0.30496200919151306 0.8694900274276733 -0.3885689973831177 -0.6378380060195923 0.3899820148944855 -0.6641370058059692
          -0.674651026725769 0.04265899956226349 -0.7369030117988586 -0.3092750012874603 -0.13909600675106049 -0.9407449960708618
          -0.9747880101203918 0.2130430042743683 -0.06633400171995163 -0.9176239967346191 0.039632998406887054 0.3954690098762512
          -0.08628900349140167 -0.15791000425815582 -0.983676016330719 0.14983700215816498 -0.21965999901294708 -0.9640009999275208
          -0.51460200548172 -0.24974599480628967 0.8202509880065918 -0.5418980121612549 -0.15101900696754456 0.8267639875411987
          -0.9112060070037842 -0.4019390046596527 -0.0902710035443306 -0.5639680027961731 -0.07416599988937378 -0.8224589824676514
          0.2362709939479828 -0.24289299547672272 -0.9408400058746338 0.4292669892311096 -0.6722909808158875 -0.6031200289726257
          0.4886150062084198 -0.8605369925498962 0.1439879983663559 0.3644790053367615 -0.906345009803772 0.21376100182533264
          0.3152250051498413 -0.8351020216941833 -0.4508189857006073 0.6675710082054138 -0.696628987789154 -0.26278701424598694
          0.7482789754867554 -0.09923399984836578 0.6559209823608398 0.6820020079612732 -0.13684700429439545 0.7184330224990845
          0.5251150131225586 -0.2706359922885895 0.8068519830703735 0.24245299398899078 -0.2553179860115051 0.9359639883041382
          -0.18009300529956818 -0.02259100042283535 0.9833899736404419 -0.695472002029419 0.16032999753952026 0.7004370093345642
          -0.6343079805374146 0.7620580196380615 -0.13007999956607819 -0.505312979221344 0.34263700246810913 -0.7919970154762268
          -0.8477299809455872 -0.3192700147628784 -0.42357999086380005 -0.5576149821281433 -0.4050689935684204 -0.7245579957962036
          -0.8621469736099243 -0.4428580105304718 0.24612900614738464 -0.6374589800834656 -0.5987510085105896 0.48491600155830383
          -0.13362999260425568 -0.652197003364563 -0.7461779713630676 0.17106899619102478 -0.6744430065155029 -0.7182350158691406
          -0.36161500215530396 -0.5358859896659851 0.7629290223121643 -0.48690301179885864 -0.2342810034751892 -0.8414499759674072
          -0.4450249969959259 -0.4926599860191345 -0.7478219866752625 -0.5699089765548706 -0.7756350040435791 -0.27128198742866516
          -0.3881329894065857 -0.7925950288772583 0.47026199102401733 -0.6293900012969971 -0.23600800335407257 -0.7403839826583862
          0.16524900496006012 -0.9712039828300476 -0.1716260015964508 0.1706780046224594 -0.9677460193634033 0.1853030025959015
          -0.042601000517606735 -0.9723510146141052 -0.22960400581359863 -0.06955400109291077 -0.9228060245513916 0.37893301248550415
          0.27538999915122986 -0.8909440040588379 -0.36107999086380005 0.07138500362634659 -0.8384640216827393 -0.54026198387146
          0.6233530044555664 -0.6579959988594055 0.4224590063095093 0.5609710216522217 -0.12607300281524658 0.8181790113449097
          0.43244099617004395 -0.2821129858493805 0.8563920259475708 0.2380020022392273 -0.2732810080051422 0.9320260286331177
          -0.13109399378299713 -0.18117499351501465 0.9746739864349365 -0.7697219848632812 -0.3858740031719208 0.5085560083389282
          -0.9812719821929932 0.07466000318527222 -0.1775680035352707 -0.6057010293006897 -0.7670329809188843 0.2116280049085617
          -0.4264099895954132 -0.9045199751853943 0.004300999920815229 -0.41890600323677063 -0.7838230133056641 0.45840901136398315
          -0.09242100268602371 -0.994825005531311 -0.04221399873495102 -0.1647139936685562 -0.8270140290260315 0.5375099778175354
          -0.5530660152435303 -0.5614339709281921 -0.615556001663208 -0.37345999479293823 -0.6879069805145264 -0.6223440170288086
          -0.284494012594223 -0.6970750093460083 -0.658141016960144 -0.8607310056686401 -0.470661997795105 -0.19395500421524048
          -0.0510919988155365 -0.9754549860954285 0.2141920030117035 0.14805899560451508 -0.9859849810600281 -0.0768899992108345
          -0.11400000005960464 -0.863752007484436 -0.4908530116081238 0.4097619950771332 -0.45928600430488586 0.7881320118904114
          0.0310869999229908 -0.47146299481391907 0.8813380002975464 -0.5194290280342102 -0.6306800246238708 0.5765720009803772
          -0.710902988910675 -0.7024700045585632 0.03395099937915802 -0.2498980015516281 -0.9200249910354614 0.3018369972705841
          -0.5197290182113647 -0.8071770071983337 -0.27990299463272095 -0.2177180051803589 -0.969228982925415 -0.11486399918794632
          -0.02434000000357628 -0.9004120230674744 0.4343569874763489 -0.3829149901866913 -0.901852011680603 0.20009900629520416
          <InformationKey name="L2_NORM_RANGE" location="vtkDataArray" length="2">
            <Value index="0">
              0.99999924786
            </Value>
            <Value index="1">