<?xml version="1.0"?>
<VTKFile type="PolyData" version="0.1" byte_order="LittleEndian" header_type="UInt32" compressor="vtkZLibDataCompressor">
  <PolyData>
    <Piece NumberOfPoints="132" NumberOfVerts="0" NumberOfLines="0" NumberOfStrips="0" NumberOfPolys="265">
      <PointData Normals="Normals">
        <DataArray type="Float32" Name="Normals" NumberOfComponents="3" format="ascii" RangeMin="0.9999992883875682" RangeMax="1.0000006916686968">
          -0.41896000504493713 -0.41633400321006775 -0.8069319725036621 0.08774399757385254 0.09263800084590912 -0.9918259978294373
          -0.5053189992904663 0.19499999284744263 -0.84061199426651 -0.6456159949302673 0.6693879961967468 -0.3675589859485626
          -0.22547399997711182 0.5993989706039429 -0.7680379748344421 -0.17276400327682495 0.8721200227737427 -0.4577769935131073
          0.24271799623966217 0.6666380167007446 -0.7047569751739502 0.2083909958600998 -0.6029180288314819 -0.7701060175895691
          -0.2944459915161133 0.9553589820861816 0.02432600036263466 -0.1679760068655014 0.8131269812583923 0.5573229789733887
          0.2959829866886139 0.9328479766845703 0.2054010033607483 -0.9571710228919983 -0.002193999942392111 -0.28951600193977356
          -0.7886229753494263 0.5697870254516602 0.23111799359321594 -0.6261529922485352 0.31024301052093506 0.7153199911117554
          -0.9477049708366394 -0.12522700428962708 0.2935520112514496 0.0363520011305809 0.38930198550224304 0.9203929901123047
          0.41555899381637573 -0.9054059982299805 -0.08689200133085251 0.805351972579956 -0.42791301012039185 -0.4102430045604706
          0.9619860053062439 -0.027861999347805977 0.2716760039329529 0.7987070083618164 0.5998299717903137 0.04764899984002113
          0.9057379961013794 0.1235940009355545 -0.4054180085659027 0.6425340175628662 -0.1091340035200119 0.7584459781646729
          0.5441939830780029 0.5414749979972839 0.6408259868621826 0.6998950242996216 -0.6445670127868652 0.3077009916305542
          0.4650929868221283 0.8466020226478577 -0.25875499844551086 0.6441659927368164 0.5737040042877197 -0.5058789849281311
          0.5050029754638672 0.06948799639940262 -0.8603159785270691 0.13805599510669708 0.952659010887146 -0.270891010761261
          -0.4438590109348297 -0.808122992515564 -0.38720300793647766 -0.8966599702835083 0.37504199147224426 -0.2352530062198639
          -0.9821280241012573 0.08048299700021744 -0.17013899981975555 -0.3155539929866791 0.20715199410915375 -0.9260200262069702
          -0.5056840181350708 0.8141350150108337 -0.28542599081993103 0.21958699822425842 0.08566699922084808 -0.9718239903450012
          0.3276109993457794 0.9116420149803162 0.24815300107002258 0.5447800159454346 0.7409039735794067 0.39278000593185425
          0.3038080036640167 0.4005639851093292 -0.8644359707832336 -0.35398998856544495 -0.023747999221086502 -0.9349480271339417
          0.09397699683904648 -0.8995609879493713 -0.4265649914741516 -0.37813600897789 -0.8682199716567993 -0.3212609887123108
          0.7053250074386597 0.22512899339199066 0.672186017036438 0.9130510091781616 0.2808479964733124 0.2957409918308258
          0.9801089763641357 -0.171207994222641 0.10037100315093994 0.8274149894714355 -0.4590960144996643 0.3234409987926483
          -0.17093199491500854 0.757187008857727 0.6304360032081604 0.7665789723396301 -0.39641499519348145 -0.5051850080490112
          -0.8926159739494324 0.20569700002670288 0.4011560082435608 -0.9290069937705994 -0.3618850111961365 0.0773639976978302
          0.5511469841003418 -0.8167769908905029 -0.17062599956989288 0.29291900992393494 -0.4755289852619171 -0.8295000195503235
          -0.8114979863166809 -0.5400040149688721 -0.2233089953660965 0.19962699711322784 -0.06411100178956985 0.9777719974517822
          0.7177960276603699 0.1410990059375763 0.6818060278892517 -0.7344599962234497 0.11270000040531158 0.6692289710044861
          -0.34582799673080444 -0.12858699262142181 -0.9294450283050537 -0.06377699971199036 0.9968029856681824 0.04811700060963631
          -0.7483639717102051 0.6438459753990173 -0.15941600501537323 -0.46880900859832764 0.6518229842185974 0.5961089730262756
          0.13236400485038757 -0.7225760221481323 -0.6785010099411011 0.8191329836845398 -0.17498700320720673 -0.5462599992752075
          -0.5015010237693787 -0.7787179946899414 -0.3769550025463104 -0.8494110107421875 -0.5267840027809143 -0.031605999916791916
          -0.7836049795150757 -0.38016998767852783 0.49135899543762207 0.44187799096107483 -0.14057500660419464 0.8859919905662537
          0.8871030211448669 -0.1384039968252182 0.44033199548721313 0.9314489960670471 0.10068400204181671 0.34966400265693665
          0.5387600064277649 -0.30957600474357605 -0.7835180163383484 0.36931899189949036 -0.5082989931106567 -0.7779679894447327
          0.34606799483299255 0.12059000134468079 -0.9304270148277283 -0.8222060203552246 -0.17281599342823029 -0.5423210263252258
          -0.9084780216217041 -0.2066659927368164 -0.3632580041885376 -0.7409359812736511 -0.2417059987783432 0.626570999622345
          -0.28918299078941345 -0.11999399960041046 0.949724018573761 0.27209898829460144 -0.03467399999499321 0.9616439938545227
          -0.9589229822158813 -0.0630280002951622 -0.2765760123729706 -0.027462000027298927 0.012294000014662743 -0.999547004699707
          -0.5760539770126343 -0.3281320035457611 -0.7486600279808044 0.9811109900474548 0.1634179949760437 0.10351700335741043
          0.3645530045032501 0.15498700737953186 -0.9181939959526062 0.6836919784545898 0.14592400193214417 -0.7150329947471619
          -0.7015910148620605 0.18037199974060059 -0.6893740296363831 0.9725750088691711 0.0754539966583252 0.22000999748706818
          -0.09841299802064896 -0.12867100536823273 0.9867920279502869 0.9242879748344421 -0.031828999519348145 0.3803679943084717
          -0.9260540008544922 0.02666899934411049 0.37644699215888977 0.06728299707174301 -0.0351720005273819 0.9971140027046204
          -0.5725929737091064 0.6608440279960632 0.4852040112018585 -0.9982900023460388 -0.0076790000312030315 0.05795300006866455
          -0.43786799907684326 -0.01803000085055828 0.8988580107688904 -0.5066990256309509 -0.5353220105171204 0.675786018371582
          -0.5328149795532227 -0.8416290283203125 0.08814399689435959 -0.38735198974609375 -0.3749440014362335 -0.842244029045105
          -0.42167899012565613 0.9063940048217773 0.025227999314665794 -0.5415989756584167 -0.12321600317955017 0.8315579891204834
          -0.3966509997844696 0.5935710072517395 0.7002440094947815 -0.951977014541626 0.2970469892024994 0.07417699694633484
          -0.6678850054740906 0.7425400018692017 0.05063699930906296 -0.5789639949798584 -0.8095930218696594 0.09674300253391266
          0.0197369996458292 -0.9525690078735352 0.30368199944496155 0.5264089703559875 -0.825223982334137 0.20469200611114502
          0.6450110077857971 -0.7552070021629333 0.11671499907970428 -0.9204059839248657 0.35964199900627136 -0.153330996632576
          -0.1581999957561493 0.6301550269126892 -0.7601820230484009 0.9532510042190552 0.08446899801492691 -0.2901340126991272
          0.9550619721412659 -0.057356998324394226 -0.29080501198768616 0.9895529747009277 -0.07203599810600281 -0.12488400191068649
          0.550715982913971 -0.6318809986114502 -0.5453789830207825 -0.12133099883794785 -0.981224000453949 -0.14992499351501465
          0.42524901032447815 0.09628400206565857 -0.8999410271644592 -0.22116799652576447 0.5239139795303345 -0.8225569725036621
          -0.2582080066204071 0.8076710104942322 -0.5300909876823425 -0.612201988697052 0.5082380175590515 -0.6057249903678894
          0.6628209948539734 0.3793550133705139 -0.6455680131912231 -0.8700670003890991 0.316881000995636 0.3775849938392639
          -0.7963399887084961 -0.5733889937400818 -0.19252799451351166 -0.8953449726104736 0.24452200531959534 -0.37224501371383667
          -0.6612679958343506 -0.2452079951763153 -0.7089409828186035 -0.647042989730835 0.7007930278778076 -0.30037298798561096
          0.009031999856233597 -0.967070996761322 -0.25434601306915283 -0.12925300002098083 -0.7944129705429077 0.5934649705886841
          -0.6160209774971008 0.6698899865150452 0.41444599628448486 -0.6460509896278381 0.7469180226325989 -0.157260000705719
          -0.47036099433898926 0.5449939966201782 0.6940760016441345 -0.7097489833831787 0.3134709894657135 -0.6308659911155701
          0.8581179976463318 0.15553200244903564 0.489329993724823 0.336122989654541 0.035725999623537064 0.9411399960517883
          0.9748690128326416 -0.04683399945497513 0.21780000627040863 0.5354390144348145 -0.7442150115966797 0.39931100606918335
          0.7369269728660583 -0.611070990562439 -0.2890160083770752 -0.14661100506782532 0.3823559880256653 0.912310004234314
          -0.7074049711227417 -0.358379989862442 0.6092140078544617 -0.23876699805259705 0.012873000465333462 0.9709920287132263
          <InformationKey name="L2_NORM_RANGE" location="vtkDataArray" length="2">
            <Value index="0">
              0.99999928839
            </Value>
            <Value index="1">
              1.0000006917
            </Value>
          </InformationKey>
        </DataArray>
      </PointData>
      <CellData>
      </CellData>
      <Points>
        <DataArray type="Float32" Name="Points" NumberOfComponents="3" format="ascii" RangeMin="0.022743737785546683" RangeMax="0.43033903876002094">
          -0.014410999603569508 -0.013598999939858913 -0.016179999336600304 -0.00008499999967170879 0.009027999825775623 -0.020874999463558197
          -0.013113999739289284 0.0033110000658780336 -0.0205680001527071 -0.01546700019389391 0.015633000060915947 -0.008531000465154648
          -0.004821999929845333 0.015112999826669693 -0.017985999584197998 -0.0027840000111609697 0.01990099996328354 -0.01243599969893694
          0.005878000054508448 0.016241999343037605 -0.01668200083076954 0.00355600006878376 -0.019732000306248665 -0.016087999567389488
          -0.007062000222504139 0.022360000759363174 0.00032699998700991273 -0.005578999873250723 0.016913000494241714 0.0160520002245903
          0.007822999730706215 0.021767999976873398 0.00533499987795949 -0.023660000413656235 0.0009670000290498137 -0.006163999903947115
          -0.019054999575018883 0.012640000320971012 0.007550999987870455 -0.014759000390768051 0.010037999600172043 0.01696299947798252
          -0.02322000078856945 -0.006688999943435192 0.005090999882668257 0.0015979999443516135 0.010356999933719635 0.022321000695228577
          0.015348999761044979 -0.020966999232769012 -0.003978000022470951 0.021215999498963356 -0.01508300006389618 -0.0041669998317956924
          0.024599000811576843 -0.0042039998807013035 0.008414999581873417 0.020854000002145767 0.012846999801695347 0.002001000102609396
          0.023794999346137047 0.0021470000501722097 -0.007741999812424183 0.01619799993932247 -0.00469799991697073 0.02009899914264679
          0.014600000344216824 0.01001800037920475 0.01840200088918209 0.020208999514579773 -0.015490000136196613 0.007689000107347965
          0.010502999648451805 0.01940299943089485 -0.007658999878913164 0.015147999860346317 0.014049000106751919 -0.0125749995931983
          0.01322299987077713 0.008363000117242336 -0.016909999772906303 0.0035689999349415302 0.021949000656604767 -0.007794000208377838
          -0.008365999907255173 -0.019571000710129738 -0.01405400037765503 -0.019783999770879745 -0.0213019996881485 0.02870200015604496
          -0.03887299820780754 -0.035551998764276505 0.036552999168634415 -0.023914000019431114 -0.020013000816106796 0.04053499922156334
          -0.012644000351428986 -0.0066720000468194485 0.03480000048875809 -0.021400000900030136 -0.006446999963372946 0.03732600063085556
          -0.006105999927967787 0.00017800000205170363 0.05215299874544144 -0.00029600001289509237 -0.003930000122636557 0.04657299816608429
          -0.027703000232577324 -0.0005290000117383897 0.03308400139212608 -0.01496999990195036 -0.036348000168800354 0.01129399985074997
          -0.0007989999721758068 -0.02293900027871132 0.0034129999112337828 -0.011075000278651714 -0.02115499973297119 0.0019150000298395753
          0.006804000120609999 -0.007788000162690878 0.02621000073850155 0.007199000101536512 -0.012993999756872654 0.04092099890112877
          0.00672700023278594 -0.021807000041007996 0.03144599869847298 0.009921999648213387 -0.01779000088572502 0.01733900047838688
          -0.006907000206410885 -0.0018489999929443002 0.02312999963760376 0.0010639999527484179 -0.037654999643564224 0.01699499972164631
          -0.016721000894904137 -0.005801999941468239 0.015672000125050545 -0.01703600026667118 -0.01584799960255623 0.008163999766111374
          0.007431000005453825 -0.021097000688314438 0.009589999914169312 -0.008677000179886818 -0.03800800070166588 0.012070000171661377
          -0.02088399976491928 -0.012612000107765198 -0.006463999859988689 -0.009739000350236893 -0.033799998462200165 0.06356500089168549
          -0.00013299999409355223 -0.01775199919939041 0.05262099951505661 -0.03265799954533577 -0.019883999601006508 0.057844001799821854
          -0.03810099884867668 -0.020757999271154404 0.036681998521089554 -0.02179899998009205 0.0029750000685453415 0.04503500089049339
          -0.03462500125169754 -0.00016599999798927456 0.034014999866485596 -0.030773000791668892 -0.0034370000939816236 0.051281001418828964
          -0.02001900039613247 -0.06540600210428238 0.016429999843239784 0.001888000057078898 -0.05043699964880943 0.023684000596404076
          -0.021987000480294228 -0.06865999847650528 0.022683000192046165 -0.026599999517202377 -0.06355699896812439 0.027569999918341637
          -0.02816700004041195 -0.055362001061439514 0.04968300089240074 -0.009061000309884548 -0.053777001798152924 0.053564999252557755
          -0.0048039997927844524 -0.0330829992890358 0.057767998427152634 0.0018279999494552612 -0.052046999335289 0.0404059998691082
          -0.010320999659597874 -0.05218400061130524 0.017045000568032265 -0.018704000860452652 -0.05908399820327759 0.009751999750733376
          -0.021112000569701195 -0.05259200185537338 0.0068430001847445965 -0.02930399961769581 -0.05055699869990349 0.014592000283300877
          -0.009860999882221222 -0.12267299741506577 0.03841099888086319 -0.009101999923586845 -0.12240500003099442 0.04609299823641777
          -0.012222000397741795 -0.0893929973244667 0.05236300081014633 0.001740999985486269 -0.12240099906921387 0.05069899931550026
          0.005040000192821026 -0.21114499866962433 0.02339800074696541 0.010552999563515186 -0.11679600179195404 0.021375000476837158
          -0.01596199907362461 -0.0765639990568161 0.025905000045895576 0.01787699945271015 -0.11824999749660492 0.032993000000715256
          0.024021999910473824 -0.20857399702072144 0.013659000396728516 0.02859799936413765 -0.3387509882450104 -0.004222999792546034
          0.013098999857902527 -0.33748599886894226 -0.002010999945923686 0.0315839983522892 -0.20981599390506744 0.030581999570131302
          0.019687000662088394 -0.21194300055503845 0.04159599915146828 0.034582000225782394 -0.340054988861084 0.018526999279856682
          0.007689999882131815 -0.3365429937839508 0.01851700060069561 0.022141000255942345 -0.3399690091609955 0.025314999744296074
          -0.018817000091075897 -0.3966600000858307 -0.017185000702738762 -0.02585499919950962 -0.4058319926261902 -0.025818999856710434
          -0.01917400024831295 -0.4063720107078552 -0.01382100023329258 -0.006637000013142824 -0.42393800616264343 -0.016572000458836555
          -0.013248000293970108 -0.42603200674057007 -0.025707000866532326 -0.010708999820053577 -0.4210149943828583 -0.04021599888801575
          -0.012679999694228172 -0.3929089903831482 -0.023437999188899994 -0.004222999792546034 -0.40748199820518494 -0.013365999795496464
          -0.008108999580144882 -0.3955880105495453 -0.015359999611973763 -0.0035920001100748777 -0.39575299620628357 -0.006723000202327967
          0.0032309999223798513 -0.38906800746917725 -0.020041000097990036 0.00829899962991476 -0.41865798830986023 -0.0016329999780282378
          0.011537999846041203 -0.429623007774353 -0.015636999160051346 0.02232999913394451 -0.4166800081729889 0.0002530000056140125
          0.029416000470519066 -0.4225119948387146 -0.014000000432133675 0.007325000129640102 -0.3754430115222931 0.003418999956920743
          0.013558999635279179 -0.37245801091194153 -0.019039999693632126 0.029999999329447746 -0.37907201051712036 -0.002339000115171075
          0.03533000126481056 -0.4107379913330078 -0.011388000100851059 0.03257400169968605 -0.40149998664855957 0.00240899994969368
          0.01677599921822548 -0.4271239936351776 -0.02783600054681301 0.0019409999949857593 -0.42901599407196045 -0.03366300091147423
          0.008834999985992908 -0.40199699997901917 -0.04170500114560127 -0.006761999800801277 -0.39578500390052795 -0.03997199982404709
          0.005615999922156334 -0.3870129883289337 -0.035950999706983566 -0.017643999308347702 -0.3975679874420166 -0.03791499882936478
          0.011652999557554722 -0.3887389898300171 -0.03253699839115143 -0.023439999669790268 -0.40192100405693054 0.027442999184131622
          -0.023009000346064568 -0.41368600726127625 0.017612000927329063 -0.02280000038444996 -0.4028030037879944 0.015178999863564968
          -0.01742899976670742 -0.4118010103702545 0.006657000165432692 -0.014681999571621418 -0.3917219936847687 0.014773000031709671
          0.008596000261604786 -0.4251849949359894 0.015568000264465809 -0.007207999937236309 -0.42360299825668335 0.0331449992954731
          -0.015598000027239323 -0.3949289917945862 0.02867799997329712 -0.001075000036507845 -0.38638800382614136 0.01388499978929758
          0.005931000225245953 -0.3769710063934326 0.024924999102950096 -0.00698000006377697 -0.39615398645401 0.0025239998940378428
          0.03203200176358223 -0.3805060088634491 0.019658999517560005 0.014189000241458416 -0.4045970141887665 0.03374199941754341
          0.03808499872684479 -0.40324699878692627 0.021679000928997993 0.02623800002038479 -0.42248401045799255 0.024091999977827072
          0.03357499837875366 -0.4114919900894165 0.01206200011074543 -0.003949000034481287 -0.3908439874649048 0.0369190014898777
          -0.02061700075864792 -0.4158720076084137 0.030533000826835632 -0.0042489999905228615 -0.4051879942417145 0.03789199888706207
          <InformationKey name="L2_NORM_RANGE" location="vtkDataArray" length="2">
            <Value index="0">
              0.022743737786
            </Value>
            <Value index="1">
              0.43033903876
            </Value>
          </InformationKey>
        </DataArray>
      </Points>
      <Verts>
        <DataArray type="Int64" Name="connectivity" format="ascii" RangeMin="1e+299" RangeMax="-1e+299">
        </DataArray>
        <DataArray type="Int64" Name="offsets" format="ascii" RangeMin="1e+299" RangeMax="-1e+299">
        </DataArray>
      </Verts>
      <Lines>
        <DataArray type="Int64" Name="connectivity" format="ascii" RangeMin="1e+299" RangeMax="-1e+299">
        </DataArray>
        <DataArray type="Int64" Name="offsets" format="ascii" RangeMin="1e+299" RangeMax="-1e+299">
        </DataArray>
      </Lines>
      <Strips>
        <DataArray type="Int64" Name="connectivity" format="ascii" RangeMin="1e+299" RangeMax="-1e+299">
        </DataArray>
        <DataArray type="Int64" Name="offsets" format="ascii" RangeMin="1e+299" RangeMax="-1e+299">
        </DataArray>
      </Strips>
      <Polys>
        <DataArray type="Int32" Name="connectivity" format="ascii" RangeMin="0" RangeMax="131">
          2 1 0 5 4 3
          5 6 4 1 7 0
          5 3 8 10 8 9
          3 11 12 8 12 9
          12 13 9 12 14 13
          9 13 15 7 17 16
          20 19 18 18 22 21
          18 21 23 10 9 22
          24 10 19 17 23 16
          19 22 18 19 10 22
          26 25 20 26 20 17
          25 6 24 22 9 15
          21 22 15 6 26 1
          6 5 27 27 8 10
          5 8 27 12 11 14
          25 19 20 24 27 10
          2 0 11 7 28 0
          0 28 11 26 17 7
          20 18 17 17 18 23
          4 1 2 3 2 11
          29 30 31 32 29 31
          32 31 33 32 34 35
          33 36 34 39 38 37
          40 41 42 43 40 42
          40 44 41 43 42 45
          41 44 35 44 32 35
          46 29 32 46 47 29
          48 45 49 38 48 49
          44 46 32 38 49 37
          39 37 47 47 37 29
          50 28 39 50 39 47
          14 50 47 44 13 46
          15 13 44 14 47 46
          13 14 46 15 44 40
          21 15 40 21 40 43
          23 21 43 7 16 38
          7 38 28 28 38 39
          23 43 48 16 23 48
          16 48 38 34 51 35
          51 52 35 34 53 51
          54 36 33 55 36 56
          29 37 30 33 31 54
          57 53 34 55 57 34
          53 54 30 53 56 54
          55 56 57 54 56 36
          34 36 55 32 33 34
          58 59 60 30 61 62
          62 61 60 52 41 35
          51 63 64 64 63 65
          59 64 65 41 64 42
          59 66 45 49 45 66
          66 59 58 67 66 58
          68 37 66 49 66 37
          68 69 37 68 67 69
          67 68 69 60 69 58
          69 61 30 62 63 51
          52 64 41 61 69 60
          69 67 58 62 70 71
          72 62 71 63 62 72
          63 72 73 70 75 74
          70 74 71 59 76 60
          76 75 70 62 76 70
          60 76 62 63 77 65
          73 77 63 78 79 80
          74 78 80 65 77 59
          59 77 75 75 77 78
          75 78 74 73 81 77
          77 81 78 78 81 79
          71 74 82 73 71 82
          73 82 81 83 81 82
          79 81 83 82 74 84
          83 82 85 82 84 85
          74 80 84 72 71 73
          86 87 88 88 87 89
          90 87 91 92 87 86
          88 89 93 88 93 94
          94 93 95 96 94 95
          89 97 93 93 97 95
          98 99 97 89 98 97
          100 99 98 95 101 96
          102 101 80 80 101 84
          96 101 102 79 103 102
          102 103 104 104 103 105
          99 104 105 100 104 99
          90 98 89 94 92 86
          107 106 98 96 92 94
          91 108 106 91 109 108
          110 108 109 92 110 109
          107 90 91 92 111 87
          91 106 107 109 111 92
          112 110 102 106 104 100
          98 106 100 102 80 79
          106 108 104 107 106 91
          104 112 102 96 110 92
          110 96 102 110 96 102
          108 110 112 115 114 113
          116 114 115 117 116 115
          117 115 113 118 119 114
          118 114 116 120 117 113
          120 121 117 122 121 120
          123 121 95 123 116 117
          123 117 121 123 97 116
          121 101 95 122 101 121
          101 122 84 124 85 122
          118 97 99 84 122 85
          79 83 103 83 124 103
          103 124 105 83 85 124
          124 122 125 126 124 125
          127 119 118 105 126 128
          99 105 128 99 128 118
          128 127 118 122 129 125
          129 122 120 114 130 113
          129 120 131 131 120 113
          130 119 131 130 131 113
          125 131 119 129 131 125
          105 124 126 105 124 126
          119 130 114 128 126 127
          127 126 125 127 125 119
          118 116 97 26 7 1
          6 25 26 1 4 6
          2 3 4 27 24 6
          25 24 19 3 12 8
          11 28 50 50 14 11
          57 56 53 51 30 62
          30 51 53 52 51 64
          64 59 42 59 45 42
          37 39 47 45 48 43
          37 69 30 30 54 31
          66 67 68 76 59 75
          109 91 111 111 91 87
          86 88 94 87 90 89
          104 108 112 107 98 90
          95 97 123
        </DataArray>
        <DataArray type="Int32" Name="offsets" format="ascii" RangeMin="3" RangeMax="795">
          3 6 9 12 15 18
          21 24 27 30 33 36
          39 42 45 48 51 54
          57 60 63 66 69 72
          75 78 81 84 87 90
          93 96 99 102 105 108
          111 114 117 120 123 126
          129 132 135 138 141 144
          147 150 153 156 159 162
          165 168 171 174 177 180
          183 186 189 192 195 198
          201 204 207 210 213 216
          219 222 225 228 231 234
          237 240 243 246 249 252
          255 258 261 264 267 270
          273 276 279 282 285 288
          291 294 297 300 303 306
          309 312 315 318 321 324
          327 330 333 336 339 342
          345 348 351 354 357 360
          363 366 369 372 375 378
          381 384 387 390 393 396
          399 402 405 408 411 414
          417 420 423 426 429 432
          435 438 441 444 447 450
          453 456 459 462 465 468
          471 474 477 480 483 486
          489 492 495 498 501 504
          507 510 513 516 519 522
          525 528 531 534 537 540
          543 546 549 552 555 558
          561 564 567 570 573 576
          579 582 585 588 591 594
          597 600 603 606 609 612
          615 618 621 624 627 630
          633 636 639 642 645 648
          651 654 657 660 663 666
          669 672 675 678 681 684
          687 690 693 696 699 702
          705 708 711 714 717 720
          723 726 729 732 735 738
          741 744 747 750 753 756
          759 762 765 768 771 774
          777 780 783 786 789 792
          795
        </DataArray>
      </Polys>
    </Piece>
  </PolyData>
</VTKFile>
