<?xml version="1.0"?>
<VTKFile type="PolyData" version="0.1" byte_order="LittleEndian" header_type="UInt32" compressor="vtkZLibDataCompressor">
  <PolyData>
    <Piece NumberOfPoints="27" NumberOfVerts="0" NumberOfLines="0" NumberOfStrips="0" NumberOfPolys="26">
      <PointData Normals="Normals">
        <DataArray type="Float32" Name="Normals" NumberOfComponents="3" format="ascii" RangeMin="0.9999995354131054" RangeMax="1.0000005436309525">
          -0.2859080135822296 0.4305860102176666 0.8560680150985718 0.8614879846572876 0.4968859851360321 0.10461100190877914
          -0.1883469969034195 0.6533240079879761 -0.7332749962806702 -0.9496880173683167 0.3131900131702423 -0.0023139999248087406
          0.06374000012874603 -0.29515400528907776 0.9533209800720215 0.9879559874534607 -0.15010200440883636 0.03757600113749504
          -0.9690250158309937 -0.22188299894332886 -0.10843899846076965 0.20692400634288788 -0.24719899892807007 -0.9466130137443542
          0.007801000028848648 -0.19093899428844452 0.9815710186958313 0.9857320189476013 -0.16703100502490997 0.02079799957573414
          -0.9698579907417297 -0.19457300007343292 -0.1466829925775528 0.17067499458789825 -0.300368994474411 -0.9384289979934692
          -0.08886600285768509 0.17615799605846405 0.9803419709205627 0.9975780248641968 0.06253299862146378 -0.030463000759482384
          -0.9842870235443115 -0.11123500019311905 -0.13713200390338898 0.09562599658966064 -0.19573499262332916 -0.9759830236434937
          0.013276999816298485 0.3190020024776459 0.9476609826087952 0.9606260061264038 0.26179298758506775 -0.09307499974966049
          -0.9717370271682739 -0.23361100256443024 -0.03396400064229965 0.1021289974451065 -0.21096999943256378 -0.9721429944038391
          0.1999099999666214 0.23374100029468536 0.9515259861946106 0.9862340092658997 0.14863599836826324 -0.07246100157499313
          -0.8553329706192017 -0.47107699513435364 0.2156209945678711 0.25096699595451355 -0.6208739876747131 -0.7426509857177734
          0.657912015914917 -0.16486400365829468 0.734827995300293 0.850117027759552 -0.5261170268058777 0.022413000464439392
          -0.22269999980926514 -0.8506900072097778 0.47616299986839294
          <InformationKey name="L2_NORM_RANGE" location="vtkDataArray" length="2">
            <Value index="0">
              0.99999953541
            </Value>
            <Value index="1">
              1.0000005436
            </Value>
          </InformationKey>
        </DataArray>
      </PointData>
      <CellData>
      </CellData>
      <Points>
        <DataArray type="Float32" Name="Points" NumberOfComponents="3" format="ascii" RangeMin="0.16405479871054626" RangeMax="0.1863789993075804">
          0.0017180000431835651 -0.166485995054245 0.004528000019490719 0.00471000000834465 -0.1639840006828308 -0.001019999966956675
          0.002555999904870987 -0.1643030047416687 -0.005956999957561493 -0.0024210000410676003 -0.16497600078582764 -0.0009980000322684646
          0.0017000000225380063 -0.16945500671863556 0.0035800000187009573 0.004769999999552965 -0.16776099801063538 -0.0012870000209659338
          -0.0020729999523609877 -0.16894400119781494 -0.001686000032350421 0.0026469998992979527 -0.16855299472808838 -0.005714999977499247
          0.0013699999544769526 -0.1725730001926422 0.003172999946400523 0.003854000009596348 -0.1713549941778183 -0.0006730000022798777
          -0.0009239999926649034 -0.17265300452709198 -0.0011340000201016665 0.0017719999887049198 -0.1721860021352768 -0.003622000105679035
          0.0014700000174343586 -0.17541299760341644 0.002553999889642 0.003837000112980604 -0.1751450002193451 -0.0003530000103637576
          -0.0006130000110715628 -0.17658400535583496 -0.00048499999684281647 0.0016830000095069408 -0.17630299925804138 -0.0026859999634325504
          0.002822000067681074 -0.17822399735450745 0.0032850001007318497 0.003965000156313181 -0.17876100540161133 0.0006060000159777701
          -0.00015900000289548188 -0.180527001619339 0.00010900000052060932 0.002454000059515238 -0.1808840036392212 -0.0022120000794529915
          0.0038620000705122948 -0.18107900023460388 0.003756999969482422 0.005028000101447105 -0.18229100108146667 0.0012130000395700336
          0.0014250000240281224 -0.18389399349689484 0.0011549999471753836 0.0035149999894201756 -0.1848829984664917 -0.0009410000056959689
          0.004747999832034111 -0.18396900594234467 0.004129000008106232 0.004137999843806028 -0.18581700325012207 0.002167999977245927
          0.0036559998989105225 -0.1863200068473816 0.0029360000044107437
          <InformationKey name="L2_NORM_RANGE" location="vtkDataArray" length="2">
            <Value index="0">
              0.16405479871
            </Value>
            <Value index="1">
              0.18637899931
            </Value>
          </InformationKey>
        </DataArray>
      </Points>
      <Verts>
        <DataArray type="Int64" Name="connectivity" format="ascii" RangeMin="1e+299" RangeMax="-1e+299">
        </DataArray>
        <DataArray type="Int64" Name="offsets" format="ascii" RangeMin="1e+299" RangeMax="-1e+299">
        </DataArray>
      </Verts>
      <Lines>
        <DataArray type="Int64" Name="connectivity" format="ascii" RangeMin="1e+299" RangeMax="-1e+299">
        </DataArray>
        <DataArray type="Int64" Name="offsets" format="ascii" RangeMin="1e+299" RangeMax="-1e+299">
        </DataArray>
      </Lines>
      <Strips>
        <DataArray type="Int64" Name="connectivity" format="ascii" RangeMin="1e+299" RangeMax="-1e+299">
        </DataArray>
        <DataArray type="Int64" Name="offsets" format="ascii" RangeMin="1e+299" RangeMax="-1e+299">
        </DataArray>
      </Strips>
      <Polys>
        <DataArray type="Int32" Name="connectivity" format="ascii" RangeMin="0" RangeMax="26">
          0 1 2 3 1 0
          4 5 0 3 6 4
          2 1 5 7 3 2
          7 6 5 4 8 9
          4 6 10 8 7 5
          9 11 6 7 11 10
          9 8 12 13 8 10
          14 12 11 9 13 15
          10 11 15 14 13 12
          16 17 12 14 18 16
          15 13 17 19 14 15
          19 18 17 16 20 21
          16 18 22 20 19 17
          21 23 18 19 23 22
          21 20 24 25 20 22
          26 24 23 21 25 22
          23 25 26 25 24 26
        </DataArray>
        <DataArray type="Int32" Name="offsets" format="ascii" RangeMin="4" RangeMax="102">
          4 8 12 16 20 24
          28 32 36 40 44 48
          52 56 60 64 68 72
          76 80 84 88 92 95
          99 102
        </DataArray>
      </Polys>
    </Piece>
  </PolyData>
</VTKFile>
