<?xml version="1.0"?>
<VTKFile type="PolyData" version="0.1" byte_order="LittleEndian" header_type="UInt32" compressor="vtkZLibDataCompressor">
  <PolyData>
    <Piece NumberOfPoints="66" NumberOfVerts="0" NumberOfLines="0" NumberOfStrips="0" NumberOfPolys="72">
      <PointData Normals="Normals">
        <DataArray type="Float32" Name="Normals" NumberOfComponents="3" format="ascii" RangeMin="0.9999992437283347" RangeMax="1.0000005690006384">
          0.9935330152511597 -0.1101280003786087 -0.027658000588417053 0.5397449731826782 -0.5195220112800598 -0.6623989939689636
          0.40400299429893494 0.24092300236225128 -0.8824610114097595 0.42882099747657776 0.7941619753837585 -0.4306040108203888
          0.9982159733772278 -0.024165000766515732 -0.05460600182414055 0.5231080055236816 -0.42920899391174316 -0.736299991607666
          0.5191709995269775 0.32220399379730225 0.791608989238739 0.1137000024318695 0.9498869776725769 0.2911820113658905
          0.6001350283622742 0.2222750037908554 0.7683960199356079 0.3141019940376282 -0.5778539776802063 -0.753275990486145
          0.33695799112319946 0.3741309940814972 -0.8639940023422241 0.0973690003156662 -0.6634020209312439 -0.7419009804725647
          -0.1771869957447052 0.9050260186195374 -0.386694997549057 0.9895510077476501 0.14136900007724762 -0.02833699993789196
          0.5782939791679382 -0.2852939963340759 -0.7643190026283264 0.5962309837341309 0.34727200865745544 0.723816990852356
          0.03237700089812279 -0.5186859965324402 -0.8543509840965271 -0.22266100347042084 0.3250829875469208 0.919098973274231
          -0.2390419989824295 0.9101759791374207 0.33828800916671753 -0.2750070095062256 0.24990500509738922 0.9283959865570068
          -0.323868989944458 0.27559998631477356 0.9050710201263428 0.10396900027990341 -0.5620129704475403 -0.8205680251121521
          -0.11246199905872345 0.4267689883708954 -0.8973410129547119 0.1135760024189949 -0.677515983581543 -0.7266849875450134
          0.0056329998187720776 -0.5762439966201782 -0.8172580003738403 -0.6550549864768982 0.7555630207061768 -0.005216999910771847
          -0.6590080261230469 0.4881170094013214 -0.5722330212593079 0.9806190133094788 0.18077099323272705 -0.0755539983510971
          0.5226609706878662 -0.27591800689697266 -0.8066570162773132 0.47633299231529236 0.44299399852752686 0.7595149874687195
          0.1762930005788803 -0.31685298681259155 -0.9319469928741455 -0.2915630042552948 0.23863300681114197 0.9263070225715637
          -0.0011180000146850944 -0.3044489920139313 -0.9525279998779297 -0.8368229866027832 0.03447899967432022 0.5463870167732239
          -0.794884979724884 -0.08337099850177765 0.6010050177574158 -0.8056179881095886 -0.03405600041151047 0.5914559960365295
          -0.8053069710731506 -0.03918499872088432 0.5915619730949402 -0.7356399893760681 -0.4913269877433777 -0.46629598736763
          -0.6182289719581604 -0.7217749953269958 -0.3111790120601654 -0.7429860234260559 -0.607475996017456 -0.2809720039367676
          -0.8344380259513855 -0.3510740101337433 -0.42480701208114624 0.9489150047302246 0.2531430125236511 -0.18835699558258057
          0.46901100873947144 -0.16830900311470032 -0.8670070171356201 0.34474998712539673 0.49216100573539734 0.7993280291557312
          0.392753005027771 -0.03361799940466881 -0.9190289974212646 -0.23955300450325012 0.28399500250816345 0.9284189939498901
          0.1620129942893982 0.08773600310087204 -0.9828799962997437 -0.8166810274124146 -0.013772999867796898 0.5769249796867371
          -0.7867559790611267 -0.06409800052642822 -0.6139280200004578 0.9716359972953796 0.2288929969072342 -0.05942299962043762
          0.48403400182724 -0.31997600197792053 -0.8144490122795105 0.14329500496387482 0.29486599564552307 0.9447330236434937
          0.5888869762420654 -0.21333900094032288 -0.7795500159263611 -0.18465299904346466 -0.05074699968099594 0.9814929962158203
          0.472896009683609 -0.1733199954032898 -0.8639039993286133 -0.8065999746322632 -0.14086399972438812 0.574068009853363
          -0.693638026714325 -0.27206701040267944 -0.6669679880142212 0.4515880048274994 -0.7127869725227356 -0.5366590023040771
          0.4382860064506531 -0.6724990010261536 -0.5963640213012695 0.20843400061130524 -0.8622890114784241 0.4615330100059509
          0.6130229830741882 -0.6372179985046387 -0.467070996761322 -0.07154999673366547 -0.9108909964561462 0.4063960015773773
          0.580024003982544 -0.7143489718437195 -0.391508013010025 -0.4588809907436371 -0.7789940237998962 0.4273129999637604
          -0.09341699630022049 -0.9953740239143372 0.022453000769019127 0.3110780119895935 -0.9152889847755432 -0.2558850049972534
          <InformationKey name="L2_NORM_RANGE" location="vtkDataArray" length="2">
            <Value index="0">
              0.99999924373
            </Value>
            <Value index="1">
              1.000000569
            </Value>
          </InformationKey>
        </DataArray>
      </PointData>
      <CellData>
      </CellData>
      <Points>
        <DataArray type="Float32" Name="Points" NumberOfComponents="3" format="ascii" RangeMin="0.05508956753532539" RangeMax="0.09268785228350722">
          0.011346999555826187 -0.04054100066423416 0.04330400004982948 0.0075079998932778835 -0.0438539981842041 0.0414620004594326
          0.007209999952465296 -0.04090699926018715 0.037383999675512314 0.009430999867618084 -0.03587999939918518 0.042121000587940216
          0.010162999853491783 -0.04553600028157234 0.046153999865055084 0.0078940000385046 -0.048333000391721725 0.044199999421834946
          0.0070940000005066395 -0.040782999247312546 0.050397999584674835 0.006572999991476536 -0.035718001425266266 0.048103999346494675
          0.007480999920517206 -0.046241000294685364 0.051743000745773315 0.004910000134259462 -0.0444910004734993 0.04039299860596657
          0.004137000069022179 -0.040424998849630356 0.03731599822640419 0.005526999942958355 -0.048312000930309296 0.04381600022315979
          0.0031059999018907547 -0.03853800147771835 0.04186499863862991 0.00989999994635582 -0.050624001771211624 0.048870999366045
          0.0090549997985363 -0.05273500084877014 0.04662099853157997 0.008491000160574913 -0.05143300071358681 0.053725000470876694
          0.006322000175714493 -0.052538998425006866 0.04670099914073944 0.0027890000492334366 -0.041078001260757446 0.05071699991822243
          0.0019660000689327717 -0.03634899854660034 0.04789600148797035 0.0034539999905973673 -0.046477001160383224 0.05230500176548958
          0.00443299999460578 -0.05175099894404411 0.05418400093913078 0.0007800000021234155 -0.04593700170516968 0.03878600150346756
          -0.001062000053934753 -0.04159000143408775 0.036111000925302505 0.002005999907851219 -0.048973001539707184 0.04328799992799759
          0.0031789999920874834 -0.0531730018556118 0.04680300131440163 -0.0041240002028644085 -0.038332000374794006 0.046011000871658325
          -0.005609000101685524 -0.041763000190258026 0.03971699997782707 0.010758999735116959 -0.05561399832367897 0.051203999668359756
          0.010276000015437603 -0.057124000042676926 0.0489949993789196 0.009705999866127968 -0.05652200058102608 0.05587000027298927
          0.007164000067859888 -0.05710599943995476 0.04904999956488609 0.005830000154674053 -0.056853998452425 0.05613899976015091
          0.004488000180572271 -0.058164000511169434 0.04919400066137314 -0.0038610000628978014 -0.0430850014090538 0.04805799946188927
          -0.001411000033840537 -0.047770000994205475 0.04921000078320503 0.0006500000017695129 -0.052411999553442 0.05097600072622299
          0.0022690000478178263 -0.0570329986512661 0.05310999974608421 -0.003450999967753887 -0.046633001416921616 0.04086099937558174
          -0.0018139999592676759 -0.05058800056576729 0.044224999845027924 -0.000058000001445179805 -0.05477900058031082 0.04805099964141846
          0.0017519999528303742 -0.05939599871635437 0.05090399831533432 0.013132000342011452 -0.06027299910783768 0.05286100134253502
          0.010780000127851963 -0.061650000512599945 0.05152999982237816 0.010739999823272228 -0.0616770014166832 0.057649001479148865
          0.007830999791622162 -0.061994001269340515 0.05072600021958351 0.007953999564051628 -0.06175899878144264 0.057693999260663986
          0.006124999839812517 -0.06329900026321411 0.05029499903321266 0.0035830000415444374 -0.0616459995508194 0.055243998765945435
          0.0031049998942762613 -0.06419699639081955 0.05098100006580353 0.015381000004708767 -0.0648379996418953 0.05455999821424484
          0.011785999871790409 -0.06642299890518188 0.05251900106668472 0.011628000065684319 -0.06693899631500244 0.060217998921871185
          0.009514999575912952 -0.06676000356674194 0.0514179989695549 0.009650999680161476 -0.06671199947595596 0.06003500148653984
          0.007406000047922134 -0.0689140036702156 0.0495619997382164 0.004687000066041946 -0.06627699732780457 0.05755599960684776
          0.004947000183165073 -0.06939200311899185 0.04944299906492233 0.01498700026422739 -0.06981900334358215 0.05748699977993965
          0.012341000139713287 -0.06973999738693237 0.05601600185036659 0.013073000125586987 -0.0711439996957779 0.05795399844646454
          0.009421999566257 -0.07076799869537354 0.05447100102901459 0.010587000288069248 -0.07145900279283524 0.05796400085091591
          0.0077760000713169575 -0.07195699959993362 0.05334100127220154 0.004991000052541494 -0.07045300304889679 0.056651998311281204
          0.004772999789565802 -0.0730850026011467 0.05245700106024742 0.010033000260591507 -0.07090699672698975 0.05581799894571304
          <InformationKey name="L2_NORM_RANGE" location="vtkDataArray" length="2">
            <Value index="0">
              0.055089567535
            </Value>
            <Value index="1">
              0.092687852284
            </Value>
          </InformationKey>
        </DataArray>
      </Points>
      <Verts>
        <DataArray type="Int64" Name="connectivity" format="ascii" RangeMin="1e+299" RangeMax="-1e+299">
        </DataArray>
        <DataArray type="Int64" Name="offsets" format="ascii" RangeMin="1e+299" RangeMax="-1e+299">
        </DataArray>
      </Verts>
      <Lines>
        <DataArray type="Int64" Name="connectivity" format="ascii" RangeMin="1e+299" RangeMax="-1e+299">
        </DataArray>
        <DataArray type="Int64" Name="offsets" format="ascii" RangeMin="1e+299" RangeMax="-1e+299">
        </DataArray>
      </Lines>
      <Strips>
        <DataArray type="Int64" Name="connectivity" format="ascii" RangeMin="1e+299" RangeMax="-1e+299">
        </DataArray>
        <DataArray type="Int64" Name="offsets" format="ascii" RangeMin="1e+299" RangeMax="-1e+299">
        </DataArray>
      </Strips>
      <Polys>
        <DataArray type="Int32" Name="connectivity" format="ascii" RangeMin="0" RangeMax="65">
          0 1 2 3 4 5
          1 0 6 0 3 7
          8 4 0 6 1 9
          10 2 5 11 9 1
          2 10 12 3 2 12
          7 3 12 13 14 5
          4 15 13 4 8 14
          16 11 5 17 6 7
          18 19 8 6 17 18
          7 12 20 15 8 19
          9 21 22 10 11 23
          21 9 10 22 12 16
          24 23 11 25 18 12
          26 25 12 22 26 12
          27 28 14 13 29 27
          13 15 28 30 16 14
          31 29 15 20 30 32
          24 16 33 17 18 25
          34 19 17 33 35 20
          19 34 36 31 20 35
          21 37 26 22 23 38
          37 21 24 39 38 23
          32 40 39 24 37 33
          25 26 41 42 28 27
          43 41 27 29 42 44
          30 28 45 43 29 31
          44 46 32 30 47 45
          31 36 46 48 40 32
          38 34 33 37 39 35
          34 38 40 36 35 39
          48 47 36 40 49 50
          42 41 51 49 41 43
          50 52 44 42 53 51
          43 45 52 54 46 44
          55 53 45 47 54 56
          48 46 56 55 47 48
          57 58 50 49 59 57
          49 51 58 60 52 50
          61 59 51 53 60 62
          54 52 63 61 53 55
          62 64 56 54 64 63
          55 56 57 59 65 58
          57 65 60 58 65 59
          61 65 62 60 65 61
          63 65 64 62 65 63
          64 65
        </DataArray>
        <DataArray type="Int32" Name="offsets" format="ascii" RangeMin="4" RangeMax="272">
          4 8 12 16 20 24
          27 30 33 37 41 45
          49 53 56 60 64 68
          71 75 78 81 84 88
          92 96 100 104 108 112
          116 120 124 128 132 136
          140 144 148 152 156 160
          164 168 172 176 180 184
          188 192 196 200 204 208
          212 216 220 224 228 232
          236 240 244 248 251 254
          257 260 263 266 269 272
        </DataArray>
      </Polys>
    </Piece>
  </PolyData>
</VTKFile>
