<?xml version="1.0"?>
<VTKFile type="PolyData" version="0.1" byte_order="LittleEndian" header_type="UInt32" compressor="vtkZLibDataCompressor">
  <PolyData>
    <Piece NumberOfPoints="201" NumberOfVerts="0" NumberOfLines="0" NumberOfStrips="0" NumberOfPolys="398">
      <PointData Normals="Normals">
        <DataArray type="Float32" Name="Normals" NumberOfComponents="3" format="ascii" RangeMin="0.9999992509867753" RangeMax="1.000000717614974">
          -0.015054999850690365 0.2184869945049286 0.9757239818572998 -0.5805950164794922 -0.28008198738098145 0.7645019888877869
          -0.25098100304603577 -0.035353999584913254 0.9673460125923157 0.3688420057296753 -0.11686199903488159 0.9221159815788269
          0.058619000017642975 -0.04540399834513664 0.9972469806671143 -0.01896600052714348 -0.297450989484787 0.9545490145683289
          0.2544719874858856 0.20352600514888763 0.9454209804534912 0.04015300050377846 0.3560650050640106 0.933597981929779
          -0.14240600168704987 0.2842560112476349 0.9481130242347717 -0.7007099986076355 -0.5883079767227173 -0.4036079943180084
          -0.7756850123405457 -0.6290169954299927 -0.051486000418663025 -0.3404189944267273 -0.8002279996871948 0.4937100112438202
          -0.7124760150909424 0.203016996383667 0.6716859936714172 -0.9740579724311829 -0.18202799558639526 -0.1344510018825531
          0.8594589829444885 -0.33434799313545227 0.38670599460601807 0.5705580115318298 -0.5736079812049866 0.5877389907836914
          0.1881520003080368 -0.589257001876831 0.7857319712638855 0.5973629951477051 0.4312039911746979 0.6761810183525085
          0.9484969973564148 0.03170999884605408 0.3151960074901581 -0.05496099963784218 -0.9516630172729492 0.3021869957447052
          -0.0604420006275177 0.48840901255607605 0.8705189824104309 0.016820000484585762 0.464462012052536 0.88543301820755
          0.0730540007352829 0.5355460047721863 0.8413400053977966 -0.3354150056838989 -0.5661230087280273 -0.7529950141906738
          -0.6823199987411499 -0.5924100279808044 -0.4283579885959625 -0.561797022819519 -0.8268229961395264 -0.027338000014424324
          -0.7584720253944397 -0.3597069978713989 -0.5434430241584778 -0.35288599133491516 -0.5046089887619019 -0.7879350185394287
          -0.8072670102119446 0.24816299974918365 0.5354769825935364 -0.9886919856071472 -0.13480299711227417 -0.06570400297641754
          0.9181600213050842 -0.3915179967880249 0.06079600006341934 0.38564199209213257 -0.9221169948577881 0.0313199982047081
          0.26763200759887695 -0.8208649754524231 0.5045329928398132 0.9600539803504944 0.21920399367809296 0.17391200363636017
          0.9723320007324219 -0.038752999156713486 0.23036499321460724 0.6272410154342651 0.5834550261497498 0.5158969759941101
          0.9172959923744202 0.3982050120830536 0.0005039999959990382 0.04228200018405914 -0.9275529980659485 -0.37129101157188416
          -0.4037820100784302 -0.8464760184288025 -0.3470410108566284 -0.21137000620365143 0.4347659945487976 0.8753859996795654
          0.01706800051033497 0.42047300934791565 0.9071440100669861 0.2585749924182892 0.5098059773445129 0.820510983467102
          0.4535619914531708 -0.6119530200958252 -0.6479160189628601 -0.2709810137748718 -0.6344220042228699 -0.7239320278167725
          -0.15291400253772736 -0.34825199842453003 -0.9248449802398682 -0.12230999767780304 -0.36865299940109253 -0.9214850068092346
          -0.7919440269470215 -0.217849999666214 -0.5704089999198914 -0.30848100781440735 -0.30733099579811096 -0.9002150297164917
          -0.8428120017051697 0.20207400619983673 0.4988330006599426 -0.9900649785995483 -0.09091199934482574 -0.10727100074291229
          0.6785550117492676 -0.7345499992370605 0.0001880000054370612 0.9713180065155029 0.2252659946680069 -0.07613500207662582
          0.9726709723472595 -0.1092820018529892 -0.20486199855804443 0.9165199995040894 0.3955189883708954 0.05963100120425224
          0.8740630149841309 0.4765259921550751 0.09453199803829193 0.5477449893951416 0.4671519994735718 0.6940780282020569
          0.8355820178985596 0.4652769863605499 0.29209598898887634 -0.3249819874763489 0.3788149952888489 0.8665369749069214
          -0.05051799863576889 0.36626800894737244 0.9291369915008545 0.27054500579833984 0.3537519872188568 0.8953580260276794
          0.5266889929771423 0.1672160029411316 -0.8334490060806274 0.08221100270748138 -0.1894959956407547 -0.9784340262413025
          0.2789260149002075 0.15955300629138947 -0.9469649791717529 -0.8664270043373108 -0.19794300198554993 -0.458391010761261
          -0.48543301224708557 -0.30852100253105164 -0.8180279731750488 -0.8739690184593201 0.17353899776935577 0.4539420008659363
          -0.9825310111045837 -0.14367300271987915 -0.11828400194644928 0.8339179754257202 0.36674100160598755 -0.4124090075492859
          0.6233760118484497 0.5679699778556824 -0.5374119877815247 0.937574028968811 0.3141610026359558 0.14918899536132812
          0.9258779883384705 0.34214600920677185 -0.16027000546455383 0.5739459991455078 0.33540600538253784 0.7470530271530151
          0.7584919929504395 0.3662469983100891 0.5390290021896362 -0.41443899273872375 0.35203200578689575 0.8392339944839478
          -0.03820699825882912 0.3538050055503845 0.9345380067825317 0.32331499457359314 0.342972993850708 0.8819509744644165
          0.5733709931373596 0.2405720055103302 -0.7831799983978271 -0.07631000131368637 -0.2515319883823395 -0.9648360013961792
          0.5540980100631714 -0.07640600204467773 -0.8289369940757751 -0.9048680067062378 -0.18232400715351105 -0.38467198610305786
          -0.7057880163192749 -0.27747198939323425 -0.6518219709396362 -0.8568570017814636 0.22030900418758392 0.4661119878292084
          -0.9928079843521118 -0.06372199952602386 -0.10135400295257568 0.8786129951477051 0.07459200173616409 -0.47167301177978516
          0.7004160284996033 0.00850799959152937 -0.7136840224266052 0.9767339825630188 0.15834000706672668 0.1446319967508316
          0.9712960124015808 0.030135000124573708 -0.23595599830150604 0.6493909955024719 0.235726997256279 0.7229970097541809
          0.8440960049629211 0.217849999666214 0.4899420142173767 -0.4075460135936737 0.34613099694252014 0.8450440168380737
          -0.048503000289201736 0.31449198722839355 0.9480199813842773 0.34571200609207153 0.2804360091686249 0.8954539895057678
          0.6182799935340881 -0.12076500058174133 -0.7766240239143372 -0.3411650061607361 -0.24705100059509277 -0.9069579839706421
          0.3260979950428009 -0.19233499467372894 -0.9255629777908325 -0.9087079763412476 -0.12393300235271454 -0.3986090123653412
          -0.7418180108070374 -0.21102699637413025 -0.6365320086479187 -0.8093230128288269 0.2621679902076721 0.5256069898605347
          -0.9979310035705566 0.06236900016665459 -0.01559900026768446 0.8784300088882446 -0.11186400055885315 -0.4645940065383911
          0.7483699917793274 -0.1606529951095581 -0.6435319781303406 0.9888110160827637 0.05669400095939636 0.13797999918460846
          0.9770020246505737 -0.05599299818277359 -0.20574499666690826 0.6577860116958618 0.13813899457454681 0.7404289841651917
          0.8954700231552124 0.07240500301122665 0.4391930103302002 -0.38776999711990356 0.3120630085468292 0.8673239946365356
          -0.1754159927368164 0.2562189996242523 0.9505689740180969 0.18956899642944336 0.20347100496292114 0.9605540037155151
          0.4546859860420227 -0.26146799325942993 -0.8514080047607422 -0.44036000967025757 -0.2328519970178604 -0.8671000003814697
          -0.01675499975681305 -0.2770389914512634 -0.9607120156288147 -0.910565972328186 -0.06596899777650833 -0.40806499123573303
          -0.651669979095459 -0.19467699527740479 -0.7330939769744873 -0.7928789854049683 0.25655698776245117 0.5527390241622925
          -0.9881100058555603 0.1327030062675476 0.07764700055122375 0.8644279837608337 -0.1494549959897995 -0.4800280034542084
          0.6793169975280762 -0.22947099804878235 -0.6970450282096863 0.993149995803833 -0.03652200102806091 0.11099600046873093
          0.9779660105705261 -0.05476199835538864 -0.2014559954404831 0.5356410145759583 0.12568600475788116 0.8350399732589722
          0.8896430134773254 0.014055999927222729 0.45643898844718933 -0.44812899827957153 0.2626569867134094 0.8545119762420654
          -0.33198800683021545 0.20757600665092468 0.9201610088348389 -0.06353099644184113 0.17124199867248535 0.9831780195236206
          0.28208300471305847 -0.3045940101146698 -0.9097539782524109 -0.4433949887752533 -0.23547199368476868 -0.8648430109024048
          -0.21705099940299988 -0.2849920094013214 -0.9336320161819458 -0.9300079941749573 -0.025242000818252563 -0.36667200922966003
          -0.6138179898262024 -0.18576499819755554 -0.7672799825668335 -0.8136770129203796 0.2089190036058426 0.5424780249595642
          -0.9792450070381165 0.14273999631404877 0.14389100670814514 0.8782089948654175 -0.15859100222587585 -0.45121899247169495
          0.6813070178031921 -0.2180580049753189 -0.6987640261650085 0.9843860268592834 -0.09042000025510788 0.1510239988565445
          0.9620550274848938 -0.14324000477790833 -0.23223499953746796 0.38061198592185974 0.14751100540161133 0.9128940105438232
          0.842432975769043 0.08420299738645554 0.5321800112724304 -0.5599740147590637 0.21783599257469177 0.7993599772453308
          -0.398497998714447 0.19083499908447266 0.8970959782600403 -0.16601000726222992 0.1835480034351349 0.968891978263855
          0.26743999123573303 -0.3066059947013855 -0.9134929776191711 -0.4522170126438141 -0.23643900454044342 -0.8599979877471924
          -0.25852400064468384 -0.27243199944496155 -0.9267929792404175 -0.9554510116577148 -0.026246000081300735 -0.29398098587989807
          -0.6651809811592102 -0.16148599982261658 -0.7290099859237671 -0.8490219712257385 0.16604700684547424 0.5015869736671448
          -0.977849006652832 0.08294700086116791 0.19217200577259064 0.8798159956932068 -0.2626579999923706 -0.39614900946617126
          0.7627180218696594 -0.24283599853515625 -0.5994099974632263 0.9562129974365234 -0.08787800371646881 0.2791669964790344
          0.9571560025215149 -0.2533099949359894 -0.14031100273132324 0.29462000727653503 0.030062999576330185 0.955141007900238
          0.7726250290870667 0.056988999247550964 0.63229900598526 -0.6812620162963867 0.21025800704956055 0.7011939883232117
          -0.47673800587654114 0.17032800614833832 0.8623859882354736 -0.18050000071525574 0.1725109964609146 0.9683279991149902
          0.309675008058548 -0.3427180051803589 -0.886929988861084 -0.489452987909317 -0.2592940032482147 -0.8325880169868469
          -0.23367899656295776 -0.28084900975227356 -0.9308689832687378 -0.9753590226173401 -0.07083900272846222 -0.2089409977197647
          -0.7476149797439575 -0.1664389967918396 -0.6429380178451538 -0.8755199909210205 0.189069002866745 0.4446539878845215
          -0.9747740030288696 0.053640998899936676 0.21664999425411224 0.8658890128135681 -0.3433389961719513 -0.36380699276924133
          0.7252190113067627 -0.37481001019477844 -0.5775600075721741 0.8993840217590332 -0.21978500485420227 0.37789198756217957
          0.9725080132484436 -0.22758400440216064 -0.049327999353408813 0.31189700961112976 -0.0129380002617836 0.9500280022621155
          0.6035940051078796 -0.29454898834228516 0.7408879995346069 -0.7509089708328247 0.16150400042533875 0.6403530240058899
          -0.23086200654506683 0.5968909859657288 0.7683910131454468 -0.08052299916744232 0.20300400257110596 0.9758610129356384
          0.2553800046443939 -0.4116419851779938 -0.8748319745063782 -0.5713800191879272 -0.3257960081100464 -0.7532470226287842
          -0.2736020088195801 -0.37292900681495667 -0.8866040110588074 -0.9882609844207764 0.009953999891877174 -0.15244799852371216
          -0.8232489824295044 -0.24798299372196198 -0.510653018951416 -0.7126320004463196 0.643392026424408 0.27964600920677185
          -0.9432579874992371 0.2542099952697754 0.21363699436187744 0.8423629999160767 -0.38793399930000305 -0.3740749955177307
          0.6512669920921326 -0.40812501311302185 -0.6397539973258972 0.9286080002784729 -0.23029400408267975 0.2909489870071411
          0.9354479908943176 -0.3531090021133423 -0.01586499996483326 0.5466470122337341 0.5122259855270386 0.6624209880828857
          0.859574019908905 -0.15867500007152557 0.4857519865036011 0.07761000096797943 0.9847559928894043 -0.1556680053472519
          0.1758500039577484 -0.4495620131492615 -0.8757680058479309 -0.6194819808006287 -0.2451229989528656 -0.7457590103149414
          -0.3020550012588501 -0.4396840035915375 -0.8458369970321655 -0.8342919945716858 0.49771401286125183 -0.23714299499988556
          -0.8941450119018555 -0.04464000090956688 -0.44554799795150757 0.7756929993629456 -0.3608030080795288 -0.5178049802780151
          0.5030270218849182 -0.42539000511169434 -0.7523339986801147 0.9386039972305298 0.3363119959831238 0.07692500203847885
          0.9792609810829163 -0.12784799933433533 -0.15717099606990814 0.7180719971656799 0.34198901057243347 -0.6061490178108215
          -0.19316400587558746 0.3285509943962097 -0.9245219826698303 -0.6554160118103027 0.3419179916381836 -0.6734399795532227
          0.02550400048494339 -0.3198559880256653 -0.9471229910850525 -0.2902500033378601 -0.13415099680423737 -0.947501003742218
          0.21701200306415558 -0.22619499266147614 -0.9496009945869446
          <InformationKey name="L2_NORM_RANGE" location="vtkDataArray" length="2">
            <Value index="0">
              0.99999925099
            </Value>
            <Value index="1">
              1.0000007176
            </Value>
          </InformationKey>
        </DataArray>
      </PointData>
      <CellData>
      </CellData>
      <Points>
        <DataArray type="Float32" Name="Points" NumberOfComponents="3" format="ascii" RangeMin="0.01320521200899217" RangeMax="0.09021381741059646">
          -0.0054259998723864555 -0.0672760009765625 0.047839999198913574 -0.010468999855220318 -0.0708099976181984 0.04977000132203102
          -0.006657999940216541 -0.07206600159406662 0.048854999244213104 0.0023300000466406345 -0.0691170021891594 0.04990899935364723
          -0.0023670000955462456 -0.07139900326728821 0.04876000061631203 -0.005574999842792749 -0.07392100244760513 0.04988599941134453
          -0.0078959995880723 -0.06561700254678726 0.04805399850010872 -0.0053530000150203705 -0.06055299937725067 0.04618600010871887
          -0.0013419999741017818 -0.06476899981498718 0.047873999923467636 -0.007584999781101942 -0.0723159983754158 0.0394430011510849
          -0.0070859999395906925 -0.07401099801063538 0.045437999069690704 -0.005160999950021505 -0.07625800371170044 0.047922998666763306
          -0.010335000231862068 -0.06382899731397629 0.04842099919915199 -0.009441000409424305 -0.06836500018835068 0.04333300143480301
          0.00343000004068017 -0.07129699736833572 0.04738999903202057 0.0009399999980814755 -0.07301999628543854 0.047777000814676285
          -0.0007989999721758068 -0.07528100162744522 0.047405000776052475 0.003082999959588051 -0.06212799996137619 0.047561001032590866
          0.0032450000289827585 -0.06693500280380249 0.047224000096321106 -0.0026660000439733267 -0.07616599649190903 0.045090001076459885
          -0.008274000138044357 -0.05910800024867058 0.045538999140262604 -0.006289999932050705 -0.054283998906612396 0.04333199933171272
          -0.00203699991106987 -0.05837700143456459 0.045069001615047455 -0.0035500000230968 -0.07261200249195099 0.03708000108599663
          -0.005276000127196312 -0.07468000054359436 0.04092499986290932 -0.0051310001872479916 -0.07665800303220749 0.04461799934506416
          -0.00937500037252903 -0.06650400161743164 0.035698000341653824 -0.005886999890208244 -0.0694499984383583 0.03647200018167496
          -0.011118000373244286 -0.05776499956846237 0.04421599954366684 -0.010191000066697598 -0.06193599849939346 0.0405149981379509
          0.004871000070124865 -0.07210599631071091 0.03968999907374382 -0.00024199999461416155 -0.07696899771690369 0.04127899929881096
          -0.0012000000569969416 -0.07638400048017502 0.046404000371694565 0.004135999828577042 -0.06519799679517746 0.04403400048613548
          0.004581000190228224 -0.06859499961137772 0.04224799945950508 0.00041099998634308577 -0.05654200166463852 0.04319699853658676
          0.002268000040203333 -0.0605739988386631 0.04404300078749657 0.00015700000221841037 -0.07650300115346909 0.03933100029826164
          -0.00483699981123209 -0.07713399827480316 0.0425570011138916 -0.00903099961578846 -0.05285000056028366 0.042118001729249954
          -0.007275000214576721 -0.0480399988591671 0.04030400142073631 -0.0038980001118034124 -0.05232200026512146 0.04165000095963478
          0.004544000141322613 -0.07258100062608719 0.03510899841785431 -0.0009219999774359167 -0.07470700144767761 0.0385189987719059
          -0.003037000074982643 -0.06637000292539597 0.0336650013923645 0.0005440000095404685 -0.06929799914360046 0.03477099910378456
          -0.00993799977004528 -0.059647999703884125 0.03372599929571152 -0.006787000223994255 -0.06301899999380112 0.033713001757860184
          -0.011442000046372414 -0.05130999907851219 0.040619999170303345 -0.010703000240027905 -0.055316001176834106 0.037721000611782074
          0.0023320000618696213 -0.07453999668359756 0.03885199874639511 0.005886999890208244 -0.06577900052070618 0.03787999972701073
          0.004879999905824661 -0.069023996591568 0.03647800162434578 0.0014410000294446945 -0.058428000658750534 0.04137900099158287
          0.003323999932035804 -0.062217000871896744 0.04008699953556061 -0.0024399999529123306 -0.05042099952697754 0.039767999202013016
          -0.00029600001289509237 -0.054350998252630234 0.04077399894595146 -0.00957299955189228 -0.04642900079488754 0.03895699977874756
          -0.007559000048786402 -0.041547998785972595 0.03781000152230263 -0.005257999990135431 -0.04585399851202965 0.038823001086711884
          0.004217999987304211 -0.06562799960374832 0.03323199972510338 -0.004796000197529793 -0.059553999453783035 0.03176400065422058
          -0.001184999942779541 -0.06316400319337845 0.03330399841070175 -0.0103150000795722 -0.05254099890589714 0.03232000023126602
          -0.008071999996900558 -0.05620399862527847 0.03188500180840492 -0.012014999985694885 -0.04481999948620796 0.03709299862384796
          -0.011212999932467937 -0.04856700077652931 0.03517499938607216 0.001832999987527728 -0.059463001787662506 0.037053998559713364
          0.0027030000928789377 -0.06299400329589844 0.035679999738931656 -0.0005970000056549907 -0.052014000713825226 0.038752999156713486
          0.00029399999766610563 -0.055945999920368195 0.03784500062465668 -0.0037589999847114086 -0.04340900108218193 0.037411000579595566
          -0.002078999998047948 -0.04788300022482872 0.03777899965643883 -0.009664000011980534 -0.03986600041389465 0.0361189991235733
          -0.0071470001712441444 -0.035041000694036484 0.035395000129938126 -0.005462999921292067 -0.03914399817585945 0.03623899817466736
          -0.0011269999668002129 -0.06110500171780586 0.03455499932169914 -0.00723899994045496 -0.053070999681949615 0.02973099984228611
          -0.004036999773234129 -0.05692100152373314 0.03212299942970276 -0.011082000099122524 -0.04559899866580963 0.03066899999976158
          -0.009488999843597412 -0.049368999898433685 0.030334999784827232 -0.011934000067412853 -0.038054998964071274 0.034178998321294785
          -0.011642999947071075 -0.04179900139570236 0.032666999846696854 -0.0015010000206530094 -0.0538799986243248 0.034196000546216965
          -0.0009459999855607748 -0.05710100010037422 0.03456199914216995 -0.0015190000412985682 -0.045687999576330185 0.03518500179052353
          -0.0015369999455288053 -0.04975999891757965 0.03487199917435646 -0.003386999946087599 -0.03657799959182739 0.034341000020504
          -0.0026320000179111958 -0.04116300120949745 0.03478400036692619 -0.009139000438153744 -0.03317800164222717 0.033601000905036926
          -0.00636200001463294 -0.0285630002617836 0.03298100084066391 -0.004844999872148037 -0.03243299946188927 0.03364799916744232
          -0.0029879999347031116 -0.05395499989390373 0.03244100138545036 -0.009318999946117401 -0.04626300185918808 0.02861800044775009
          -0.005890999920666218 -0.05006999894976616 0.030084999278187752 -0.011543000116944313 -0.0387209989130497 0.0287260003387928
          -0.010515999980270863 -0.04244599863886833 0.028855999931693077 -0.011113000102341175 -0.03105499967932701 0.03185100108385086
          -0.011502999812364578 -0.03492100164294243 0.030344000086188316 -0.002529999939724803 -0.04746000096201897 0.03135399892926216
          -0.002759000053629279 -0.05057099834084511 0.03188500180840492 -0.0018629999831318855 -0.03897700086236 0.032196998596191406
          -0.0021200000774115324 -0.04316899925470352 0.03189000114798546 -0.002483000047504902 -0.029549000784754753 0.03187600150704384
          -0.0023759999312460423 -0.034240998327732086 0.03218400105834007 -0.008352000266313553 -0.0264040008187294 0.031362999230623245
          -0.005799000151455402 -0.02194100059568882 0.030944999307394028 -0.0042039998807013035 -0.02554900012910366 0.03164700046181679
          -0.004019000101834536 -0.046991001814603806 0.029548000544309616 -0.010120999999344349 -0.0392020009458065 0.027411000803112984
          -0.007060999982059002 -0.04321099817752838 0.028105000033974648 -0.011423000134527683 -0.03185199946165085 0.026619000360369682
          -0.010746000334620476 -0.03549199923872948 0.027070999145507812 -0.010134999640285969 -0.02405799925327301 0.029673999175429344
          -0.010885000228881836 -0.027990000322461128 0.02817700058221817 -0.0025679999962449074 -0.04055099934339523 0.028821999207139015
          -0.0034749999176710844 -0.04384800046682358 0.029141999781131744 -0.0017709999810904264 -0.03186199814081192 0.030323000624775887
          -0.002220999915152788 -0.03622699901461601 0.029524000361561775 -0.002171000000089407 -0.022143999114632607 0.030787000432610512
          -0.0018319999799132347 -0.02707800082862377 0.03041600063443184 -0.007658000104129314 -0.019540999084711075 0.029407000169157982
          -0.0054410002194345 -0.015163999982178211 0.029393000528216362 -0.004027999937534332 -0.018505999818444252 0.030251000076532364
          -0.004782999865710735 -0.04038900136947632 0.026843000203371048 -0.009897000156342983 -0.032193999737501144 0.02552800066769123
          -0.007402000017464161 -0.036313001066446304 0.026052000001072884 -0.010870000347495079 -0.024995999410748482 0.02456500008702278
          -0.010347999632358551 -0.02860100008547306 0.024995999410748482 -0.009255999699234962 -0.017002999782562256 0.027614999562501907
          -0.010138999670743942 -0.021038999781012535 0.02613000012934208 -0.00267999991774559 -0.03351699933409691 0.026753000915050507
          -0.0037090000696480274 -0.036981001496315 0.026711000129580498 -0.0009050000226125121 -0.024757999926805496 0.028676999732851982
          -0.001921999966725707 -0.0291959997266531 0.027638999745249748 -0.0027000000700354576 -0.014775999821722507 0.029877999797463417
          -0.001386999967508018 -0.019881000742316246 0.02893799915909767 -0.007182000204920769 -0.012613000348210335 0.027670999988913536
          -0.00496299983933568 -0.008314000442624092 0.028263000771403313 -0.003831000067293644 -0.011355999857187271 0.02899100072681904
          -0.004805999808013439 -0.03346699848771095 0.02442600019276142 -0.009202999994158745 -0.02536099962890148 0.023269999772310257
          -0.006978000048547983 -0.029360000044107437 0.02385300025343895 -0.010294999927282333 -0.018100999295711517 0.022664999589323997
          -0.009707000106573105 -0.021755000576376915 0.022857999429106712 -0.009065999649465084 -0.009970000013709068 0.025411000475287437
          -0.009673000313341618 -0.014054999686777592 0.024150999262928963 -0.0023320000618696213 -0.026645999401807785 0.024802999570965767
          -0.003456000005826354 -0.03001200035214424 0.024543000385165215 0.0002280000044265762 -0.017847999930381775 0.02641100063920021
          -0.0008999999845400453 -0.022332999855279922 0.02556299977004528 -0.0022189998999238014 -0.007170999888330698 0.028428999707102776
          -0.0007650000043213367 -0.01269499957561493 0.027242999523878098 -0.007079999893903732 -0.005708000157028437 0.025736000388860703
          -0.004997999873012304 -0.0015069999499246478 0.026843000203371048 -0.002643000101670623 -0.0044999998062849045 0.027939999476075172
          -0.004007000010460615 -0.026419000700116158 0.02218800038099289 -0.008458999916911125 -0.01856200024485588 0.0209330003708601
          -0.006066000089049339 -0.022463999688625336 0.021560000255703926 -0.010075000114738941 -0.011144000105559826 0.020914999768137932
          -0.009190999902784824 -0.014915999956429005 0.020698999986052513 -0.009294000454246998 -0.0030410001054406166 0.022425999864935875
          -0.009682999923825264 -0.007137000095099211 0.021810999140143394 -0.0005920000257901847 -0.020082000643014908 0.022362999618053436
          -0.002380999969318509 -0.023166000843048096 0.022300999611616135 0.0016299999551847577 -0.010982999578118324 0.024255000054836273
          0.0005370000144466758 -0.015627000480890274 0.02315800078213215 0.0016070000128820539 -0.001006999984383583 0.02822599932551384
          0.0013849999522790313 -0.00585199985653162 0.026257000863552094 -0.006147999782115221 0.001551999943330884 0.024831999093294144
          -0.0039160000160336494 0.004935000091791153 0.026688000187277794 -0.000770999991800636 0.0013699999544769526 0.02710700035095215
          -0.0025949999690055847 -0.019516000524163246 0.019850999116897583 -0.007935999892652035 -0.011858999729156494 0.018283000215888023
          -0.005216999910771847 -0.015751000493764877 0.01891300082206726 -0.010294999927282333 -0.004393000155687332 0.018492000177502632
          -0.009084999561309814 -0.008222999982535839 0.01813500002026558 -0.006382999941706657 0.005820999853312969 0.02336999960243702
          -0.008813000284135342 0.0001289999927394092 0.020194999873638153 0.000881000014487654 -0.013596000149846077 0.019603999331593513
          -0.0010460000485181808 -0.016565000638365746 0.01960100047290325 0.004523000214248896 -0.004246000200510025 0.02411700040102005
          0.002455000067129731 -0.009062999859452248 0.021093999966979027 0.004222000017762184 0.0030590000096708536 0.026670999825000763
          0.003886000020429492 0.00011300000187475234 0.025544999167323112 -0.003102000104263425 0.003872999921441078 0.01971299946308136
          -0.0018779999809339643 -0.013067999854683876 0.016586000099778175 -0.008034000173211098 -0.005495999939739704 0.014852000400424004
          -0.005051999818533659 -0.009207000024616718 0.015793999657034874 -0.009279999881982803 0.0021299999207258224 0.016491999849677086
          -0.00899800006300211 -0.0015569999814033508 0.01599700003862381 0.002788000041618943 -0.007426000200212002 0.016398999840021133
          -0.00014200000441633165 -0.010123999789357185 0.01651100069284439 0.005189999938011169 0.0026469998992979527 0.023166000843048096
          0.003932999912649393 -0.0023930000606924295 0.0195700004696846 0.003671000013127923 0.002633000025525689 0.012729999609291553
          -0.0036609999369829893 0.0032510000746697187 0.012264000251889229 -0.008383000269532204 0.0015300000086426735 0.014154000207781792
          -0.0023610000498592854 -0.006405999884009361 0.013454999774694443 -0.005609999876469374 -0.0021440000273287296 0.013678999617695808
          -0.0009069999796338379 -0.0032760000322014093 0.013015000149607658
          <InformationKey name="L2_NORM_RANGE" location="vtkDataArray" length="2">
            <Value index="0">
              0.013205212009
            </Value>
            <Value index="1">
              0.090213817411
            </Value>
          </InformationKey>
        </DataArray>
      </Points>
      <Verts>
        <DataArray type="Int64" Name="connectivity" format="ascii" RangeMin="1e+299" RangeMax="-1e+299">
        </DataArray>
        <DataArray type="Int64" Name="offsets" format="ascii" RangeMin="1e+299" RangeMax="-1e+299">
        </DataArray>
      </Verts>
      <Lines>
        <DataArray type="Int64" Name="connectivity" format="ascii" RangeMin="1e+299" RangeMax="-1e+299">
        </DataArray>
        <DataArray type="Int64" Name="offsets" format="ascii" RangeMin="1e+299" RangeMax="-1e+299">
        </DataArray>
      </Lines>
      <Strips>
        <DataArray type="Int64" Name="connectivity" format="ascii" RangeMin="1e+299" RangeMax="-1e+299">
        </DataArray>
        <DataArray type="Int64" Name="offsets" format="ascii" RangeMin="1e+299" RangeMax="-1e+299">
        </DataArray>
      </Strips>
      <Polys>
        <DataArray type="Int32" Name="connectivity" format="ascii" RangeMin="0" RangeMax="200">
          0 1 2 3 0 4
          5 0 2 1 0 6
          0 7 6 0 5 4
          7 0 8 0 3 8
          1 9 10 1 11 2
          12 1 6 11 1 10
          9 1 13 1 12 13
          11 5 2 14 3 15
          3 16 15 17 3 18
          3 14 18 16 3 4
          3 17 8 5 16 4
          5 11 19 16 5 19
          7 12 6 17 7 8
          12 7 20 7 21 20
          21 7 22 7 17 22
          9 23 24 9 25 10
          26 9 13 25 9 24
          23 9 27 9 26 27
          25 11 10 11 25 19
          12 26 13 28 12 20
          26 12 29 12 28 29
          30 14 31 32 31 14
          33 14 34 14 30 34
          32 14 15 14 33 18
          16 32 15 32 16 19
          33 17 18 35 17 36
          17 33 36 17 35 22
          31 32 19 37 31 19
          38 37 19 25 38 19
          21 28 20 35 21 22
          28 21 39 21 40 39
          40 21 41 21 35 41
          23 42 43 23 38 24
          44 23 27 38 23 43
          42 23 45 23 44 45
          38 25 24 26 44 27