<?xml version="1.0"?>
<VTKFile type="PolyData" version="0.1" byte_order="LittleEndian" header_type="UInt32" compressor="vtkZLibDataCompressor">
  <PolyData>
    <Piece NumberOfPoints="27" NumberOfVerts="0" NumberOfLines="0" NumberOfStrips="0" NumberOfPolys="26">
      <PointData Normals="Normals">
        <DataArray type="Float32" Name="Normals" NumberOfComponents="3" format="ascii" RangeMin="0.9999995022934931" RangeMax="1.0000005405217234">
          -0.18701200187206268 0.5119879841804504 0.8383880257606506 0.8966159820556641 0.4401560127735138 0.048392001539468765
          -0.10460100322961807 0.6395519971847534 -0.7615979909896851 -0.9214829802513123 0.38826999068260193 -0.010735999792814255
          0.060433998703956604 -0.27379098534584045 0.9598889946937561 0.9740610122680664 -0.22448000311851501 0.02851100079715252
          -0.9800559878349304 -0.18514500558376312 -0.07218500226736069 0.15842600166797638 -0.33868300914764404 -0.9274669885635376
          0.01411299966275692 -0.15528500080108643 0.9877690076828003 0.9697740077972412 -0.24370799958705902 0.01203100010752678
          -0.9815189838409424 -0.1579979956150055 -0.10797200351953506 0.11799799650907516 -0.393220990896225 -0.9118409752845764
          -0.05496999993920326 0.24798500537872314 0.9672030210494995 0.9979940056800842 -0.0018660000059753656 -0.06328599900007248
          -0.9922850131988525 -0.06789399683475494 -0.10373499989509583 0.05347000062465668 -0.27680501341819763 -0.9594370126724243
          0.052639998495578766 0.3940590023994446 0.9175770282745361 0.9678199887275696 0.2101300060749054 -0.13845300674438477
          -0.9815340042114258 -0.19103600084781647 0.009793000295758247 0.06038400158286095 -0.2921130061149597 -0.954475998878479
          0.22974799573421478 0.2920440137386322 0.9283999800682068 0.9901440143585205 0.09122999757528305 -0.10626599937677383
          -0.8714410066604614 -0.4122290015220642 0.26581498980522156 0.18635700643062592 -0.7005500197410583 -0.6888399720191956
          0.6501039862632751 -0.18949100375175476 0.7358390092849731 0.7979869842529297 -0.6013169884681702 0.04043300077319145
          -0.27913400530815125 -0.8090419769287109 0.5172380208969116
          <InformationKey name="L2_NORM_RANGE" location="vtkDataArray" length="2">
            <Value index="0">
              0.99999950229
            </Value>
            <Value index="1">
              1.0000005405
            </Value>
          </InformationKey>
        </DataArray>
      </PointData>
      <CellData>
      </CellData>
      <Points>
        <DataArray type="Float32" Name="Points" NumberOfComponents="3" format="ascii" RangeMin="0.004729389403333456" RangeMax="0.023594703910420366">
          0.0008110000053420663 -0.004906000103801489 0.005553000140935183 0.0037529999390244484 -0.003370000049471855 -0.00016199999663513154
          0.001496999990195036 -0.0036869999021291733 -0.005040000192821026 -0.0033130000811070204 -0.003375000087544322 0.00002300000051036477
          0.0006120000034570694 -0.007621000055223703 0.004761999938637018 0.003601999953389168 -0.006777999922633171 -0.00023200000578071922
          -0.003200999926775694 -0.0070130000822246075 -0.0004619999963324517 0.0013640000252053142 -0.00749199977144599 -0.0045779999345541
          0.00010900000052060932 -0.01039700023829937 0.004523999989032745 0.0025239998940378428 -0.009847000241279602 0.000582000007852912
          -0.0022559999488294125 -0.010444999672472477 0.0002640000020619482 0.0003600000054575503 -0.010510999709367752 -0.0022849999368190765
          0.00004099999932805076 -0.012990999966859818 0.004052000120282173 0.0023109999019652605 -0.013220000080764294 0.0010999999940395355
          -0.0021460000425577164 -0.013965999707579613 0.0011129999766126275 0.00007400000322377309 -0.014131000265479088 -0.0011350000277161598
          0.0012369999894872308 -0.015633000060915947 0.004908000119030476 0.002266000024974346 -0.0164170004427433 0.0022440000902861357
          -0.001896000001579523 -0.017518000677227974 0.0019039999460801482 0.000598000013269484 -0.01830199919641018 -0.0004349999944679439
          0.0021180000621825457 -0.018290000036358833 0.005512000061571598 0.003137999912723899 -0.019673999398946762 0.0030169999226927757
          -0.000493000028654933 -0.020666999742388725 0.0030990000814199448 0.00145800004247576 -0.021939000114798546 0.001025000005029142
          0.0028440000023692846 -0.020966000854969025 0.006020000204443932 0.0020959998946636915 -0.022664999589323997 0.0041680000722408295
          0.0016139999497681856 -0.023009000346064568 0.00496899988502264
          <InformationKey name="L2_NORM_RANGE" location="vtkDataArray" length="2">
            <Value index="0">
              0.0047293894033
            </Value>
            <Value index="1">
              0.02359470391
            </Value>
          </InformationKey>
        </DataArray>
      </Points>
      <Verts>
        <DataArray type="Int64" Name="connectivity" format="ascii" RangeMin="1e+299" RangeMax="-1e+299">
        </DataArray>
        <DataArray type="Int64" Name="offsets" format="ascii" RangeMin="1e+299" RangeMax="-1e+299">
        </DataArray>
      </Verts>
      <Lines>
        <DataArray type="Int64" Name="connectivity" format="ascii" RangeMin="1e+299" RangeMax="-1e+299">
        </DataArray>
        <DataArray type="Int64" Name="offsets" format="ascii" RangeMin="1e+299" RangeMax="-1e+299">
        </DataArray>
      </Lines>
      <Strips>
        <DataArray type="Int64" Name="connectivity" format="ascii" RangeMin="1e+299" RangeMax="-1e+299">
        </DataArray>
        <DataArray type="Int64" Name="offsets" format="ascii" RangeMin="1e+299" RangeMax="-1e+299">
        </DataArray>
      </Strips>
      <Polys>
        <DataArray type="Int32" Name="connectivity" format="ascii" RangeMin="0" RangeMax="26">
          0 1 2 3 1 0
          4 5 0 3 6 4
          2 1 5 7 3 2
          7 6 5 4 8 9
          4 6 10 8 7 5
          9 11 6 7 11 10
          9 8 12 13 8 10
          14 12 11 9 13 15
          10 11 15 14 13 12
          16 17 12 14 18 16
          15 13 17 19 14 15
          19 18 17 16 20 21
          16 18 22 20 19 17
          21 23 18 19 23 22
          21 20 24 25 20 22
          26 24 23 21 25 22
          23 25 26 25 24 26
        </DataArray>
        <DataArray type="Int32" Name="offsets" format="ascii" RangeMin="4" RangeMax="102">
          4 8 12 16 20 24
          28 32 36 40 44 48
          52 56 60 64 68 72
          76 80 84 88 92 95
          99 102
        </DataArray>
      </Polys>
    </Piece>
  </PolyData>
</VTKFile>
