<?xml version="1.0"?>
<VTKFile type="PolyData" version="0.1" byte_order="LittleEndian" header_type="UInt32" compressor="vtkZLibDataCompressor">
  <PolyData>
    <Piece NumberOfPoints="78" NumberOfVerts="0" NumberOfLines="0" NumberOfStrips="0" NumberOfPolys="84">
      <PointData Normals="Normals">
        <DataArray type="Float32" Name="Normals" NumberOfComponents="3" format="ascii" RangeMin="0.9999993185544092" RangeMax="1.0000005379871835">
          0.8586260080337524 0.31122300028800964 -0.40731000900268555 0.9469730257987976 0.22833099961280823 0.226065993309021
          0.8766149878501892 -0.09967599809169769 0.470755010843277 0.7599350214004517 -0.30626800656318665 -0.5733230113983154
          0.9371110200881958 0.21827499568462372 -0.2723599970340729 0.9907559752464294 0.1312980055809021 0.03409799933433533
          0.09707099944353104 0.07113900035619736 -0.9927319884300232 -0.06743399798870087 -0.06909099966287613 -0.9953290224075317
          0.4263339936733246 0.12352699786424637 -0.8960919976234436 0.7703390121459961 0.2559340000152588 0.5840169787406921
          0.9059969782829285 -0.03706999868154526 0.4216580092906952 0.8997610211372375 0.0802140012383461 0.42894700169563293
          0.6020259857177734 -0.7953230142593384 0.07089599967002869 0.010551000013947487 -0.6141610145568848 -0.789110004901886
          0.9037140011787415 0.042114999145269394 -0.4260599911212921 0.9944959878921509 0.07354100048542023 0.07463199645280838
          0.29212701320648193 -0.031230000779032707 -0.9558699727058411 0.965794026851654 0.013485999777913094 0.2589600086212158
          -0.6633210182189941 -0.1740580052137375 -0.7278109788894653 -0.5334830284118652 -0.21272200345993042 -0.8186240196228027
          -0.6326029896736145 -0.11320599913597107 -0.7661579847335815 -0.5719349980354309 -0.0640069991350174 -0.8177980184555054
          0.37884798645973206 0.20564599335193634 0.9023209810256958 0.6049090027809143 -0.3568420112133026 0.7118629813194275
          0.4497080147266388 0.026287000626325607 0.8927890062332153 0.5487040281295776 -0.8333950042724609 -0.06614600121974945
          0.5393949747085571 -0.06897299736738205 0.8392230272293091 -0.43764200806617737 -0.8581579923629761 -0.26839199662208557
          -0.09020400047302246 -0.7173659801483154 0.6908320188522339 -0.7178940176963806 -0.6233810186386108 0.3098759949207306
          -0.9106460213661194 -0.29305100440979004 -0.2912810146808624 0.899599015712738 -0.08402299880981445 -0.42855799198150635
          0.9875540137290955 -0.06665600091218948 0.1424580067396164 0.2397419959306717 -0.08387800306081772 -0.9672060012817383
          0.9511169791221619 -0.03926299884915352 0.3063249886035919 -0.544946014881134 -0.05547500029206276 -0.8366339802742004
          0.6144779920578003 -0.10042800009250641 0.7825160026550293 -0.9477739930152893 -0.2114430069923401 -0.23878300189971924
          -0.9520699977874756 -0.19256900250911713 -0.23765499889850616 -0.9627199769020081 -0.11211899667978287 -0.24616900086402893
          -0.9631829857826233 -0.06591799855232239 -0.2606379985809326 -0.41995298862457275 -0.15001900494098663 0.8950610160827637
          -0.48388299345970154 -0.10875300318002701 0.868349015712738 -0.36550500988960266 -0.1221420019865036 0.9227610230445862
          -0.392084002494812 -0.08746500313282013 0.9157620072364807 -0.2981550097465515 -0.12001500278711319 0.9469429850578308
          -0.8982589840888977 -0.19726799428462982 0.3927049934864044 -0.870061993598938 -0.2363480031490326 0.43258699774742126
          0.8459810018539429 -0.2331629991531372 -0.47953200340270996 0.9430199861526489 -0.3327159881591797 0.003639000002294779
          0.28624799847602844 -0.12018600106239319 -0.9505879878997803 0.9101679921150208 -0.3285149931907654 0.25233399868011475
          -0.5220699906349182 -0.1159529983997345 -0.8449839949607849 0.6096360087394714 -0.3015269935131073 0.7330930233001709
          -0.9608340263366699 -0.10825999826192856 -0.2551040053367615 -0.2498359978199005 -0.19236800074577332 0.9489870071411133
          -0.8434020280838013 -0.21276800334453583 0.4933589994907379 -0.872651994228363 -0.11751800030469894 0.4739910066127777
          -0.8822140097618103 -0.08582799881696701 0.4629589915275574 -0.8990899920463562 -0.09220899641513824 0.42794299125671387
          0.7867640256881714 -0.16645100712776184 -0.5943869948387146 0.946927011013031 -0.27546700835227966 -0.16567100584506989
          0.35966500639915466 0.016658000648021698 -0.93293297290802 0.9318400025367737 -0.2960740029811859 0.2097959965467453
          -0.499796986579895 0.06408099830150604 -0.863768994808197 0.5927180051803589 -0.2652139961719513 0.7604910135269165
          -0.9733859896659851 0.008682000450789928 -0.22900499403476715 -0.3075520098209381 -0.12837499380111694 0.9428319931030273
          -0.9136369824409485 -0.02790199965238571 0.40557199716567993 0.4514729976654053 0.7058519721031189 -0.5458430051803589
          0.6072090268135071 0.7944869995117188 0.00930199958384037 0.6213740110397339 0.7433410286903381 0.24766699969768524
          -0.22736600041389465 0.9112030267715454 -0.343531996011734 0.3585290014743805 0.7651039958000183 0.534857988357544
          -0.5524049997329712 0.831794023513794 0.054482001811265945 -0.24140599370002747 0.7236850261688232 0.6465319991111755
          -0.5495200157165527 0.7209330201148987 0.42223599553108215 -0.02963400073349476 0.9865909814834595 0.16050100326538086
          <InformationKey name="L2_NORM_RANGE" location="vtkDataArray" length="2">
            <Value index="0">
              0.99999931855
            </Value>
            <Value index="1">
              1.000000538
            </Value>
          </InformationKey>
        </DataArray>
      </PointData>
      <CellData>
      </CellData>
      <Points>
        <DataArray type="Float32" Name="Points" NumberOfComponents="3" format="ascii" RangeMin="0.07408458418747405" RangeMax="0.11598058676280266">
          0.004637000150978565 -0.10104800015687943 -0.03911000117659569 0.004947000183165073 -0.10064499825239182 -0.03628399968147278
          0.0068259998224675655 -0.1061210036277771 -0.03770099952816963 0.0074189999140799046 -0.10600399971008301 -0.03890100121498108
          0.0022780001163482666 -0.09616699814796448 -0.038763001561164856 0.0038449999410659075 -0.0951479971408844 -0.03588699921965599
          0.0020779999904334545 -0.09860099852085114 -0.03943299874663353 0.003361999988555908 -0.10371699929237366 -0.038975998759269714
          0.0013670000480487943 -0.09338700026273727 -0.03968000039458275 0.0030380000825971365 -0.10006099939346313 -0.035002999007701874
          0.005086999852210283 -0.10501600056886673 -0.03525400161743164 0.0026539999525994062 -0.09450799971818924 -0.03442300111055374
          0.0032140000257641077 -0.10975799709558487 -0.0356299988925457 0.003498000092804432 -0.10930600017309189 -0.03854399919509888
          0.002125999890267849 -0.09015700221061707 -0.03873800113797188 0.0026579999830573797 -0.0894860029220581 -0.03615900129079819
          0.0013310000067576766 -0.08807200193405151 -0.039799001067876816 0.0020119999535381794 -0.0890519991517067 -0.03386500105261803
          -0.0001849999971454963 -0.09872099757194519 -0.0384880006313324 0.0013000000035390258 -0.10389299690723419 -0.03886200115084648
          -0.0012710000155493617 -0.09345299750566483 -0.03841499984264374 -0.0017559999832883477 -0.08810999989509583 -0.03899800032377243
          0.0028699999675154686 -0.10205899924039841 -0.030680999159812927 0.00573199987411499 -0.10685600340366364 -0.03081499971449375
          0.0008619999862276018 -0.09667500108480453 -0.030845999717712402 0.0028019999153912067 -0.10994900017976761 -0.03354300186038017
          0.0011449999874457717 -0.09080500155687332 -0.03025900013744831 0.0018660000059753656 -0.1096860021352768 -0.03764300048351288
          0.0021069999784231186 -0.11011800169944763 -0.03222399950027466 -0.0011050000321120024 -0.10886500030755997 -0.03356099873781204
          -0.0002589999930933118 -0.10488499701023102 -0.03678499907255173 0.0026179999113082886 -0.08399199694395065 -0.038874998688697815
          0.002580000087618828 -0.08371700346469879 -0.03586899861693382 0.001272000023163855 -0.08275599777698517 -0.040015000849962234
          0.001867000013589859 -0.08357200026512146 -0.033323999494314194 -0.0016570000443607569 -0.0827149972319603 -0.039521001279354095
          0.0008360000210814178 -0.0850059986114502 -0.029962999746203423 -0.0011899999808520079 -0.09949299693107605 -0.03617899864912033
          -0.0026179999113082886 -0.09425400197505951 -0.035861000418663025 -0.0035439999774098396 -0.0889040008187294 -0.03582900017499924
          -0.004015999846160412 -0.08344899863004684 -0.03583599999547005 0.000707999977748841 -0.09975100308656693 -0.031092999503016472
          0.0014850000152364373 -0.10496000200510025 -0.03136099874973297 9.999999974752427e-7 -0.09454599767923355 -0.03082999959588051
          -0.0008420000085607171 -0.08930899947881699 -0.030559999868273735 -0.0014479999663308263 -0.08406899869441986 -0.03017999976873398
          -0.0006270000012591481 -0.10380399972200394 -0.03353000059723854 -0.0013749999925494194 -0.09887900203466415 -0.03283099830150604
          0.0034310000482946634 -0.07819999754428864 -0.03896800056099892 0.0034409998916089535 -0.07795999944210052 -0.03619199991226196
          0.0015650000423192978 -0.07749900221824646 -0.04059400036931038 0.0024949999060481787 -0.07802499830722809 -0.032917000353336334
          -0.0015269999857991934 -0.07733199745416641 -0.0399710014462471 0.001183000043965876 -0.0790959969162941 -0.029834000393748283
          -0.0045369998551905155 -0.078015998005867 -0.03580600023269653 -0.0006820000126026571 -0.07897000014781952 -0.029218999668955803
          -0.002509000012651086 -0.09395900368690491 -0.03224800154566765 -0.0033390000462532043 -0.08896200358867645 -0.03215600177645683
          -0.0037219999358057976 -0.08391299843788147 -0.032058000564575195 -0.004131000023335218 -0.07885599881410599 -0.03192500025033951
          0.0053460001945495605 -0.07273799926042557 -0.03864600136876106 0.006016999948769808 -0.07287000119686127 -0.03611399978399277
          0.002684999955818057 -0.07237199693918228 -0.04095400124788284 0.0055160000920295715 -0.0737060010433197 -0.03203999996185303
          -0.0023610000498592854 -0.07208400219678879 -0.04093199968338013 0.003696999978274107 -0.07414299994707108 -0.02842799946665764
          -0.004889999981969595 -0.07257500290870667 -0.03609500080347061 -0.000678999989759177 -0.07394299656152725 -0.027715999633073807
          -0.004786000121384859 -0.07383400201797485 -0.03180199861526489 0.004468000028282404 -0.06700100004673004 -0.03924800083041191
          0.006089999806135893 -0.0673540011048317 -0.036504000425338745 0.0053449999541044235 -0.06821399927139282 -0.03187200054526329
          -0.001769999973475933 -0.06695300340652466 -0.039597999304533005 0.004104999825358391 -0.06842599809169769 -0.028162000700831413
          -0.004296000115573406 -0.06726700067520142 -0.035009998828172684 -0.0003929999948013574 -0.06876599788665771 -0.027560999616980553
          -0.004255999810993671 -0.06884799897670746 -0.031109999865293503 0.0015170000260695815 -0.06867799907922745 -0.03444499894976616
          <InformationKey name="L2_NORM_RANGE" location="vtkDataArray" length="2">
            <Value index="0">
              0.074084584187
            </Value>
            <Value index="1">
              0.11598058676
            </Value>
          </InformationKey>
        </DataArray>
      </Points>
      <Verts>
        <DataArray type="Int64" Name="connectivity" format="ascii" RangeMin="1e+299" RangeMax="-1e+299">
        </DataArray>
        <DataArray type="Int64" Name="offsets" format="ascii" RangeMin="1e+299" RangeMax="-1e+299">
        </DataArray>
      </Verts>
      <Lines>
        <DataArray type="Int64" Name="connectivity" format="ascii" RangeMin="1e+299" RangeMax="-1e+299">
        </DataArray>
        <DataArray type="Int64" Name="offsets" format="ascii" RangeMin="1e+299" RangeMax="-1e+299">
        </DataArray>
      </Lines>
      <Strips>
        <DataArray type="Int64" Name="connectivity" format="ascii" RangeMin="1e+299" RangeMax="-1e+299">
        </DataArray>
        <DataArray type="Int64" Name="offsets" format="ascii" RangeMin="1e+299" RangeMax="-1e+299">
        </DataArray>
      </Strips>
      <Polys>
        <DataArray type="Int32" Name="connectivity" format="ascii" RangeMin="0" RangeMax="77">
          0 1 2 3 4 5
          1 0 6 0 3 7
          8 4 0 6 1 9
          10 2 5 11 9 1
          2 10 12 3 2 12
          12 13 3 13 7 3
          14 15 5 4 16 14
          4 8 15 17 11 5
          18 6 7 19 20 8
          6 18 7 13 19 21
          16 8 20 9 22 23
          10 11 24 22 9 10
          23 25 12 17 26 24
          11 27 12 25 28 29
          12 27 13 30 19 13
          27 31 32 15 14 33
          31 14 16 32 34 17
          15 35 33 16 21 34
          36 26 17 37 18 19
          30 38 20 18 37 39
          21 20 38 40 35 21
          39 22 41 42 23 24
          43 41 22 23 28 25
          23 42 28 26 44 43
          24 36 45 44 26 46
          30 27 29 42 46 29
          28 47 37 30 46 48
          49 32 31 50 48 31
          33 49 51 34 32 52
          50 33 35 51 53 36
          34 54 52 35 40 53
          55 45 36 56 38 37
          47 57 39 38 56 58
          40 39 57 59 54 40
          58 41 47 46 42 43
          56 47 41 44 57 56
          43 45 58 57 44 55
          59 58 45 60 61 49
          48 62 60 48 50 61
          63 51 49 64 62 50
          52 63 65 53 51 66
          64 52 54 65 67 55
          53 68 66 54 59 67
          68 59 55 69 70 61
          60 69 60 62 70 71
          63 61 72 69 62 64
          71 73 65 63 74 72
          64 66 73 75 67 65
          76 74 66 68 75 76
          68 67 69 72 77 70
          69 77 71 70 77 73
          71 77 72 74 77 75
          73 77 74 76 77 76
          75 77
        </DataArray>
        <DataArray type="Int32" Name="offsets" format="ascii" RangeMin="4" RangeMax="320">
          4 8 12 16 20 24
          27 30 33 36 40 44
          48 52 56 59 63 67
          71 75 79 84 87 91
          95 99 103 107 111 115
          119 123 127 131 135 138
          141 145 149 153 157 161
          165 169 173 177 181 185
          189 193 197 201 205 209
          213 217 221 225 229 233
          237 241 245 249 253 257
          261 265 268 272 276 280
          284 288 292 296 299 302
          305 308 311 314 317 320
        </DataArray>
      </Polys>
    </Piece>
  </PolyData>
</VTKFile>
