<?xml version="1.0"?>
<VTKFile type="PolyData" version="0.1" byte_order="LittleEndian" header_type="UInt32" compressor="vtkZLibDataCompressor">
  <PolyData>
    <Piece NumberOfPoints="78" NumberOfVerts="0" NumberOfLines="0" NumberOfStrips="0" NumberOfPolys="84">
      <PointData Normals="Normals">
        <DataArray type="Float32" Name="Normals" NumberOfComponents="3" format="ascii" RangeMin="0.9999992939514998" RangeMax="1.0000004962145794">
          0.8780540227890015 0.18359999358654022 -0.4419409930706024 0.9649069905281067 0.17412599921226501 0.19655799865722656
          0.87152498960495 -0.1043429970741272 0.47912099957466125 0.7365319728851318 -0.4223859906196594 -0.5283079743385315
          0.9492149949073792 0.10524599999189377 -0.2965039908885956 0.9983360171318054 0.05496399849653244 0.01743900030851364
          0.09480900317430496 -0.05863700062036514 -0.9937670230865479 -0.0812230035662651 -0.18071900308132172 -0.9801750183105469
          0.4278370141983032 -0.021487999707460403 -0.9035999774932861 0.7947520017623901 0.2575480043888092 0.5495790243148804
          0.9053959846496582 -0.05217000097036362 0.42135000228881836 0.907226026058197 0.06109200045466423 0.4161820113658905
          0.5531209707260132 -0.8157280087471008 0.16924500465393066 -0.036598000675439835 -0.699658989906311 -0.7135390043258667
          0.9003620147705078 -0.07870599627494812 -0.427964985370636 0.99788498878479 0.004687000066041946 0.06482800096273422
          0.2805989980697632 -0.16671299934387207 -0.9452360272407532 0.9664679765701294 -0.02801699936389923 0.2552559971809387
          -0.6818410158157349 -0.20405800640583038 -0.7024620175361633 -0.5563979744911194 -0.26182299852371216 -0.7885869741439819
          -0.6465550065040588 -0.1528179943561554 -0.7474039793014526 -0.5826230049133301 -0.11677800118923187 -0.8043090105056763
          0.4046419858932495 0.2775050103664398 0.8713529706001282 0.5908380150794983 -0.30276399850845337 0.7478269934654236
          0.45933499932289124 0.09940099716186523 0.8826839923858643 0.4968090057373047 -0.8670099973678589 0.038401998579502106
          0.5405930280685425 -0.004532000049948692 0.8412719964981079 -0.5056830048561096 -0.847121000289917 -0.16331100463867188
          -0.13042399287223816 -0.6140850186347961 0.7783889770507812 -0.7614269852638245 -0.5212029814720154 0.38545599579811096
          -0.935122013092041 -0.246739000082016 -0.2542969882488251 0.8877109885215759 -0.19867999851703644 -0.41532498598098755
          0.9814969897270203 -0.11977499723434448 0.1493919938802719 0.22464999556541443 -0.21439099311828613 -0.9505620002746582
          0.9484739899635315 -0.0712290033698082 0.30874499678611755 -0.5551149845123291 -0.11304199695587158 -0.8240560293197632
          0.6127219796180725 -0.04687599837779999 0.788906991481781 -0.9642999768257141 -0.1593330055475235 -0.2115129977464676
          -0.966929018497467 -0.14081799983978271 -0.2126459926366806 -0.9708560109138489 -0.06441300362348557 -0.23084299266338348
          -0.9678059816360474 -0.02225000038743019 -0.2507140040397644 -0.42151498794555664 -0.003352999920025468 0.9068149924278259
          -0.4825420081615448 0.037445999681949615 0.8750720024108887 -0.3648169934749603 0.02244899980723858 0.9308090209960938
          -0.38896000385284424 0.056575000286102295 0.9195160269737244 -0.29714998602867126 0.02232000045478344 0.9545699954032898
          -0.9074040055274963 -0.07350199669599533 0.4137830138206482 -0.8820520043373108 -0.1076669991016388 0.4586859941482544
          0.8251150250434875 -0.3436790108680725 -0.44840899109840393 0.920395016670227 -0.3885110020637512 0.04395399987697601
          0.26878899335861206 -0.2504970133304596 -0.9300559759140015 0.8895829916000366 -0.3519990146160126 0.29109999537467957
          -0.5372779965400696 -0.17336100339889526 -0.8253960013389587 0.5949910283088684 -0.24472400546073914 0.7655689716339111
          -0.968733012676239 -0.06210000067949295 -0.24020899832248688 -0.2540229856967926 -0.04983599856495857 0.9659129977226257
          -0.8529109954833984 -0.07990899682044983 0.5159040093421936 -0.8745949864387512 0.010565999895334244 0.4847390055656433
          -0.8817880153656006 0.040038999170064926 0.46994298696517944 -0.8993980288505554 0.031042000278830528 0.43602699041366577
          0.7690079808235168 -0.28939399123191833 -0.5699809789657593 0.9258040189743042 -0.3546470105648041 -0.1308159977197647
          0.351529985666275 -0.12341000139713287 -0.9280070066452026 0.9124559760093689 -0.3278360068798065 0.24484199285507202
          -0.5018020272254944 -0.0060189999639987946 -0.8649619817733765 0.5806519985198975 -0.20555999875068665 0.7877740263938904
          -0.9720990061759949 0.05311200022697449 -0.2284799963235855 -0.3071179986000061 0.014589999802410603 0.9515600204467773
          -0.9094200134277344 0.09053300321102142 0.40590599179267883 0.4977700114250183 0.5983800292015076 -0.627826988697052
          0.6613370180130005 0.7451509833335876 -0.08592300117015839 0.6743059754371643 0.7221199870109558 0.154449000954628
          -0.16190600395202637 0.8766080141067505 -0.45315098762512207 0.41688698530197144 0.7983080148696899 0.43463701009750366
          -0.488521009683609 0.8714669942855835 -0.043512001633644104 -0.18323899805545807 0.8143500089645386 0.5506889820098877
          -0.4905790090560913 0.8049939870834351 0.33364200592041016 0.04362000152468681 0.9982320070266724 0.04037800058722496
          <InformationKey name="L2_NORM_RANGE" location="vtkDataArray" length="2">
            <Value index="0">
              0.99999929395
            </Value>
            <Value index="1">
              1.0000004962
            </Value>
          </InformationKey>
        </DataArray>
      </PointData>
      <CellData>
      </CellData>
      <Points>
        <DataArray type="Float32" Name="Points" NumberOfComponents="3" format="ascii" RangeMin="0.08233252504004497" RangeMax="0.13731511827012305">
          -0.004000000189989805 -0.12484999746084213 0.014303999952971935 -0.0035520000383257866 -0.12393300235271454 0.017663000151515007
          -0.0017969999462366104 -0.1312139928340912 0.01678900048136711 -0.0010779999429360032 -0.13130700588226318 0.015318999998271465
          -0.006407999899238348 -0.11844000220298767 0.01397399976849556 -0.004372000228613615 -0.11685600131750107 0.017299000173807144
          -0.006887999828904867 -0.12158799916505814 0.013535999692976475 -0.005801999941468239 -0.12807099521160126 0.014876999892294407
          -0.0072650001384317875 -0.11500199884176254 0.01243599969893694 -0.005805999971926212 -0.12282700091600418 0.01912499964237213
          -0.003780999919399619 -0.1292870044708252 0.019582999870181084 -0.005743999965488911 -0.11571499705314636 0.018974000588059425
          -0.006512000225484371 -0.13514100015163422 0.019856000319123268 -0.006155999843031168 -0.1350490003824234 0.0162579994648695
          -0.0060270000249147415 -0.11085999757051468 0.013081000186502934 -0.005286999978125095 -0.10966499894857407 0.016099000349640846
          -0.006810999941080809 -0.10832899808883667 0.011475999839603901 -0.006004999857395887 -0.1087070032954216 0.018811000511050224
          -0.00964299961924553 -0.12138699740171432 0.014700000174343586 -0.008325999602675438 -0.12808699905872345 0.015041000209748745
          -0.01046799961477518 -0.11464899778366089 0.013977999798953533 -0.01056199986487627 -0.10797099769115448 0.012451999820768833
          -0.006147999782115221 -0.12465699762105942 0.024664999917149544 -0.003117999993264675 -0.13097399473190308 0.02524000033736229
          -0.008088000118732452 -0.11772599816322327 0.023638000711798668 -0.007007000036537647 -0.13502100110054016 0.022413000464439392
          -0.0071840002201497555 -0.11027500033378601 0.023446999490261078 -0.008169000037014484 -0.13523900508880615 0.01740800030529499
          -0.007853000424802303 -0.13496699929237366 0.024034999310970306 -0.011660000309348106 -0.13330499827861786 0.022223999723792076
          -0.010293000377714634 -0.12887300550937653 0.017709000036120415 -0.004850999917834997 -0.1031700000166893 0.01196799986064434
          -0.00483600003644824 -0.1023550033569336 0.015564000234007835 -0.006384999956935644 -0.10166800022125244 0.01039700023829937
          -0.005659999791532755 -0.10171400010585785 0.01862500049173832 -0.009940000250935555 -0.10127300024032593 0.010989000089466572
          -0.007011000066995621 -0.1029060035943985 0.02291399985551834 -0.010912000201642513 -0.12190999835729599 0.017613999545574188
          -0.012153999879956245 -0.11513900011777878 0.017193999141454697 -0.012776999734342098 -0.1083189994096756 0.01641000062227249
          -0.012838000431656837 -0.10141199827194214 0.015564000234007835 -0.008568000048398972 -0.12162099778652191 0.023811999708414078
          -0.008113999851047993 -0.12828700244426727 0.02428700029850006 -0.008934999816119671 -0.1149659976363182 0.02333099953830242
          -0.009464999660849571 -0.10825800150632858 0.022853000089526176 -0.00970499962568283 -0.10155200213193893 0.02250700071454048
          -0.010600999929010868 -0.12697599828243256 0.021484000608325005 -0.01104000024497509 -0.12060199677944183 0.02157299965620041
          -0.003317000111564994 -0.09596999734640121 0.010963999666273594 -0.0032500000670552254 -0.09523899853229523 0.014287999831140041
          -0.005541000049561262 -0.09516999870538712 0.008887999691069126 -0.004370000213384628 -0.09472999721765518 0.01826399937272072
          -0.00928100012242794 -0.09458199888467789 0.009616999886929989 -0.006031999830156565 -0.09548100084066391 0.022161999717354774
          -0.012961000204086304 -0.09452500194311142 0.014764999970793724 -0.008282000198960304 -0.09505700320005417 0.022887999191880226
          -0.011950000189244747 -0.11421900242567062 0.021523000672459602 -0.012489999644458294 -0.10784199833869934 0.020865999162197113
          -0.012480000033974648 -0.10143899917602539 0.020208999514579773 -0.012501000426709652 -0.09501799941062927 0.019593000411987305
          -0.0004689999914262444 -0.0892219990491867 0.010514999739825726 0.0003640000068116933 -0.08905799686908722 0.013601000420749187
          -0.0036989999935030937 -0.08887600153684616 0.007664000149816275 -0.0002770000137388706 -0.08943399786949158 0.01866300031542778
          -0.009813999757170677 -0.08805199712514877 0.007646999787539244 -0.002489000093191862 -0.08925999701023102 0.023103000596165657
          -0.012881999835371971 -0.08769199997186661 0.013578999787569046 -0.007788000162690878 -0.0885000005364418 0.023934999480843544
          -0.012822999618947506 -0.08862199634313583 0.018970999866724014 -0.0010049999691545963 -0.08201699703931808 0.008905000053346157
          0.0009679999784566462 -0.08218500018119812 0.012281999923288822 0.00003400000059627928 -0.08248300105333328 0.018022000789642334
          -0.008596000261604786 -0.08144299685955048 0.008472999557852745 -0.0014519999967887998 -0.08206299692392349 0.02254600077867508
          -0.011646999977529049 -0.08089900016784668 0.014077000319957733 -0.0069519998505711555 -0.08198799937963486 0.023327000439167023
          -0.01170200016349554 -0.08228900283575058 0.0190420001745224 -0.00469799991697073 -0.08311499655246735 0.014977999962866306
          <InformationKey name="L2_NORM_RANGE" location="vtkDataArray" length="2">
            <Value index="0">
              0.08233252504
            </Value>
            <Value index="1">
              0.13731511827
            </Value>
          </InformationKey>
        </DataArray>
      </Points>
      <Verts>
        <DataArray type="Int64" Name="connectivity" format="ascii" RangeMin="1e+299" RangeMax="-1e+299">
        </DataArray>
        <DataArray type="Int64" Name="offsets" format="ascii" RangeMin="1e+299" RangeMax="-1e+299">
        </DataArray>
      </Verts>
      <Lines>
        <DataArray type="Int64" Name="connectivity" format="ascii" RangeMin="1e+299" RangeMax="-1e+299">
        </DataArray>
        <DataArray type="Int64" Name="offsets" format="ascii" RangeMin="1e+299" RangeMax="-1e+299">
        </DataArray>
      </Lines>
      <Strips>
        <DataArray type="Int64" Name="connectivity" format="ascii" RangeMin="1e+299" RangeMax="-1e+299">
        </DataArray>
        <DataArray type="Int64" Name="offsets" format="ascii" RangeMin="1e+299" RangeMax="-1e+299">
        </DataArray>
      </Strips>
      <Polys>
        <DataArray type="Int32" Name="connectivity" format="ascii" RangeMin="0" RangeMax="77">
          0 1 2 3 4 5
          1 0 6 0 3 7
          8 4 0 6 1 9
          10 2 5 11 9 1
          2 10 12 3 2 12
          12 13 3 13 7 3
          14 15 5 4 16 14
          4 8 15 17 11 5
          18 6 7 19 20 8
          6 18 7 13 19 21
          16 8 20 9 22 23
          10 11 24 22 9 10
          23 25 12 17 26 24
          11 27 12 25 28 29
          12 27 13 30 19 13
          27 31 32 15 14 33
          31 14 16 32 34 17
          15 35 33 16 21 34
          36 26 17 37 18 19
          30 38 20 18 37 39
          21 20 38 40 35 21
          39 22 41 42 23 24
          43 41 22 23 28 25
          23 42 28 26 44 43
          24 36 45 44 26 46
          30 27 29 42 46 29
          28 47 37 30 46 48
          49 32 31 50 48 31
          33 49 51 34 32 52
          50 33 35 51 53 36
          34 54 52 35 40 53
          55 45 36 56 38 37
          47 57 39 38 56 58
          40 39 57 59 54 40
          58 41 47 46 42 43
          56 47 41 44 57 56
          43 45 58 57 44 55
          59 58 45 60 61 49
          48 62 60 48 50 61
          63 51 49 64 62 50
          52 63 65 53 51 66
          64 52 54 65 67 55
          53 68 66 54 59 67
          68 59 55 69 70 61
          60 69 60 62 70 71
          63 61 72 69 62 64
          71 73 65 63 74 72
          64 66 73 75 67 65
          76 74 66 68 75 76
          68 67 69 72 77 70
          69 77 71 70 77 73
          71 77 72 74 77 75
          73 77 74 76 77 76
          75 77
        </DataArray>
        <DataArray type="Int32" Name="offsets" format="ascii" RangeMin="4" RangeMax="320">
          4 8 12 16 20 24
          27 30 33 36 40 44
          48 52 56 59 63 67
          71 75 79 84 87 91
          95 99 103 107 111 115
          119 123 127 131 135 138
          141 145 149 153 157 161
          165 169 173 177 181 185
          189 193 197 201 205 209
          213 217 221 225 229 233
          237 241 245 249 253 257
          261 265 268 272 276 280
          284 288 292 296 299 302
          305 308 311 314 317 320
        </DataArray>
      </Polys>
    </Piece>
  </PolyData>
</VTKFile>
