<?xml version="1.0"?>
<VTKFile type="PolyData" version="0.1" byte_order="LittleEndian" header_type="UInt32" compressor="vtkZLibDataCompressor">
  <PolyData>
    <Piece NumberOfPoints="195" NumberOfVerts="0" NumberOfLines="0" NumberOfStrips="0" NumberOfPolys="386">
      <PointData Normals="Normals">
        <DataArray type="Float32" Name="Normals" NumberOfComponents="3" format="ascii" RangeMin="0.9999993767618868" RangeMax="1.0000006093876346">
          0.20966799557209015 0.7625010013580322 -0.6120709776878357 0.43215200304985046 0.7475079894065857 -0.5044569969177246
          0.3069539964199066 0.9513319730758667 0.027336999773979187 0.3926509916782379 0.610709011554718 -0.6876479983329773
          -0.15196199715137482 0.7078499794006348 -0.6898229718208313 0.05163000151515007 0.5431200265884399 -0.8380659818649292
          0.3009980022907257 0.6720439791679382 -0.6765779852867126 0.41012200713157654 0.9043229818344116 0.11831899732351303
          0.6855760216712952 0.5685650110244751 -0.45466500520706177 0.43312299251556396 0.771045982837677 0.46678900718688965
          -0.1895820051431656 0.9802259802818298 -0.056713998317718506 0.21337899565696716 0.67849200963974 0.7029359936714172
          0.6898840069770813 0.586654007434845 0.4241420030593872 -0.22146199643611908 0.3008840084075928 -0.927590012550354
          -0.354216992855072 0.5035229921340942 -0.7880319952964783 0.38367798924446106 0.20656299591064453 -0.9000679850578308
          0.49324101209640503 0.6214780211448669 -0.6086689829826355 0.8532779812812805 0.4869590103626251 0.18651600182056427
          0.5730900168418884 0.6022999882698059 0.5557010173797607 0.9983850121498108 0.04512700065970421 0.03452200070023537
          0.8911349773406982 -0.06621699780225754 -0.44888100028038025 -0.3836449980735779 0.9125180244445801 0.141867995262146
          -0.171641007065773 0.7342870235443115 0.6567819714546204 -0.4788320064544678 0.7996739745140076 -0.3622719943523407
          0.41309699416160583 0.44273701310157776 0.7958229780197144 0.028300000354647636 0.39565399289131165 0.9179630279541016
          -0.00535399978980422 0.3823530077934265 0.9240009784698486 0.5982909798622131 0.4576529860496521 0.6577249765396118
          0.055390000343322754 0.5041940212249756 -0.8618119955062866 0.21089500188827515 0.2825799882411957 -0.935774028301239
          -0.19426800310611725 0.49191999435424805 -0.8486899733543396 -0.20509600639343262 0.35206300020217896 -0.9132289886474609
          0.23154500126838684 -0.03602899983525276 -0.9721570014953613 0.15272900462150574 -0.15441900491714478 -0.9761289954185486
          -0.22387899458408356 0.3808070123195648 -0.8971419930458069 0.23887500166893005 -0.09111099690198898 -0.9667659997940063
          -0.38561201095581055 0.5172470211982727 -0.764041006565094 -0.4445909857749939 0.5978099703788757 -0.6670550107955933
          0.6289330124855042 -0.2889209985733032 -0.7217810153961182 0.8009309768676758 0.41971200704574585 0.42702600359916687
          0.8741199970245361 0.12579600512981415 0.4691379964351654 0.8894420266151428 0.3446800112724304 0.30014801025390625
          0.9546769857406616 -0.2476550042629242 -0.16509899497032166 0.6409599781036377 -0.2664240002632141 -0.7198539972305298
          0.7359960079193115 -0.2991960048675537 -0.6072819828987122 -0.4754149913787842 0.7555260062217712 0.4507339894771576
          -0.48043200373649597 0.8761190176010132 0.04000899940729141 -0.5749179720878601 0.8179979920387268 -0.018644999712705612
          -0.09685000032186508 0.5934770107269287 0.7990019917488098 -0.5211939811706543 0.6447489857673645 -0.5591570138931274
          -0.5706390142440796 0.7995399832725525 -0.1873680055141449 0.41777899861335754 0.28547701239585876 0.8625329732894897
          0.3871710002422333 0.24038200080394745 0.8901209831237793 0.015289000235497952 0.4331899881362915 0.9011729955673218
          -0.19308799505233765 0.4177899956703186 0.8877890110015869 0.08580899983644485 0.3861989974975586 0.9184160232543945
          0.25954100489616394 0.26215600967407227 0.9294689893722534 0.026095999404788017 0.25715500116348267 0.96601802110672
          0.4675610065460205 0.37070000171661377 -0.8024770021438599 0.35867199301719666 0.31723299622535706 -0.877905011177063
          -0.26070600748062134 0.5484179854393005 -0.7945250272750854 0.2680869996547699 0.5807250142097473 -0.7686929702758789
          0.3184640109539032 0.2577570080757141 -0.9122179746627808 0.4098980128765106 0.09468699991703033 -0.9072030186653137
          0.37460601329803467 0.00570000009611249 -0.9271669983863831 -0.1998790055513382 0.5596460103988647 -0.8042669892311096
          -0.1897979974746704 0.4632740020751953 -0.8656520247459412 -0.4625740051269531 0.4506320059299469 -0.7635149955749512
          0.2989810109138489 0.01657699979841709 -0.9541149735450745 0.5047600269317627 -0.1611199975013733 -0.8480910062789917
          0.4490799903869629 -0.28206300735473633 -0.8478019833564758 -0.32460999488830566 0.4239729940891266 -0.8455029726028442
          -0.2381870001554489 0.40886199474334717 -0.880964994430542 -0.23739099502563477 0.40555500984191895 -0.8827059864997864
          -0.7573959827423096 0.5310239791870117 -0.3799540102481842 0.6690549850463867 0.10288500040769577 0.7360569834709167
          0.8185939788818359 -0.12069600075483322 -0.5615490078926086 0.8404489755630493 -0.473470002412796 -0.2635740041732788
          0.9857749938964844 -0.15294300019741058 0.0696839988231659 0.991532027721405 -0.12934699654579163 -0.011552000418305397
          0.9306039810180664 -0.24969300627708435 0.2676349878311157 0.9324120283126831 -0.36139699816703796 0.0005210000090301037
          0.9806699752807617 -0.19560900330543518 0.004782999865710735 0.7360519766807556 -0.23675599694252014 -0.6341720223426819
          -0.3607270121574402 0.718517005443573 0.5946509838104248 -0.7629950046539307 0.4486840069293976 0.4653179943561554
          -0.7564659714698792 0.6348440051078796 0.15726499259471893 -0.41846299171447754 0.5910580158233643 0.6895930171012878
          0.03244199976325035 0.4399319887161255 0.897445023059845 -0.09152700006961823 0.31112000346183777 0.9459530115127563
          -0.22709299623966217 0.23006999492645264 0.9463070034980774 -0.6171900033950806 0.40042799711227417 0.6772990226745605
          -0.7112990021705627 0.40974798798561096 0.5711050033569336 0.11618400365114212 0.4559839963912964 0.8823720216751099
          -0.17320600152015686 0.4673509895801544 0.8669379949569702 0.14053499698638916 0.32399699091911316 0.935562014579773
          0.18874099850654602 -0.2121099978685379 0.9588459730148315 -0.06875099986791611 0.5113040208816528 0.8566449880599976
          0.18232500553131104 0.25344300270080566 0.9500129818916321 0.09133300185203552 0.3659850060939789 0.9261279702186584
          0.29291999340057373 0.027434000745415688 0.9557430148124695 0.19673000276088715 -0.15258899331092834 0.9685109853744507
          0.6200469732284546 0.31185999512672424 -0.7199199795722961 0.37636399269104004 0.4183390140533447 -0.826645016670227
          0.5416110157966614 0.24800199270248413 -0.8032140135765076 0.7592329978942871 -0.021888000890612602 -0.6504510045051575
          0.4140459895133972 0.14795400202274323 -0.8981509804725647 0.5403010249137878 0.16925199329853058 -0.824275016784668
          0.21688200533390045 0.35701701045036316 -0.9085710048675537 0.11578299850225449 0.12228500097990036 -0.9857180118560791
          0.14940600097179413 0.513384997844696 -0.8450530171394348 -0.2735300064086914 0.2094539999961853 -0.9387810230255127
          0.41509100794792175 0.12274400144815445 -0.9014620184898376 0.6091880202293396 0.026794999837875366 -0.7925729751586914
          0.4399830102920532 -0.09832199662923813 -0.8926069736480713 0.6270059943199158 -0.13649700582027435 -0.766963005065918
          -0.2446489930152893 0.46780601143836975 -0.8492969870567322 -0.49911201000213623 0.5291879773139954 -0.686182975769043
          0.39785999059677124 -0.10628700256347656 0.9112679958343506 0.6823679804801941 -0.11814399808645248 0.7213979959487915
          0.9421409964561462 -0.1953659951686859 0.2724030017852783 0.5630930066108704 -0.8259620070457458 0.026704000309109688
          0.7042790055274963 -0.7063130140304565 0.07150500267744064 0.4047499895095825 -0.914205014705658 -0.020177999511361122
          0.5545290112495422 -0.7642080187797546 -0.32936999201774597 0.7316070199012756 -0.42247000336647034 -0.5350419878959656
          0.6915540099143982 -0.23589999973773956 0.6827179789543152 0.6668180227279663 -0.45479100942611694 0.5903549790382385
          0.4368849992752075 -0.32106199860572815 0.8402680158615112 0.6924409866333008 -0.6521000266075134 0.30869200825691223
          -0.6022379994392395 0.4479379951953888 0.6608039736747742 -0.4768890142440796 0.6312969923019409 0.6115890145301819
          -0.7435629963874817 0.5326859951019287 0.40417900681495667 -0.8387920260429382 0.5129669904708862 0.18246200680732727
          -0.8075199723243713 0.5085830092430115 -0.2987549901008606 -0.24454200267791748 0.6446099877357483 0.7243459820747375
          -0.3148359954357147 0.41922101378440857 0.8515470027923584 -0.10789100080728531 -0.7269920110702515 0.6781169772148132
          0.03699199855327606 -0.8910059928894043 0.45248299837112427 -0.0338359996676445 -0.07562199980020523 0.9965620040893555
          -0.2770960032939911 -0.25725099444389343 0.9257640242576599 0.3435499966144562 -0.6126890182495117 0.7117480039596558
          0.6495410203933716 0.018052000552415848 -0.7601119875907898 0.7698670029640198 -0.21720799803733826 -0.6001039743423462
          0.09077800065279007 -0.3813669979572296 -0.9199560284614563 0.6363970041275024 -0.2537370026111603 -0.7284340262413025
          -0.369394987821579 -0.24841199815273285 -0.895455002784729 -0.3846299946308136 -0.19110099971294403 -0.9030730128288269
          -0.3856689929962158 -0.22880999743938446 -0.8938149809837341 -0.3172999918460846 -0.054308000952005386 -0.9467689990997314
          -0.32531100511550903 0.22547399997711182 -0.9183319807052612 -0.3040330111980438 0.34856000542640686 -0.886605978012085
          0.2220499962568283 -0.9506949782371521 0.21650199592113495 0.35583800077438354 -0.9069100022315979 0.22559499740600586
          0.49258100986480713 -0.8366640210151672 0.2394929975271225 0.16711300611495972 -0.9857370257377625 0.019883999601006508
          -0.014441000297665596 -0.9948970079421997 0.09985599666833878 0.28801000118255615 -0.9390829801559448 -0.18754300475120544
          0.004945999942719936 -0.9837020039558411 0.1797409951686859 0.4289860129356384 -0.6451659798622131 -0.6322429776191711
          0.07916700094938278 -0.788847029209137 -0.609470009803772 0.10558199882507324 -0.9342989921569824 -0.3404949903488159
          0.49573400616645813 -0.4494979977607727 -0.7431010007858276 0.6892179846763611 -0.305978000164032 -0.656777024269104
          0.3075709939002991 -0.8924160003662109 0.33014199137687683 -0.6865320205688477 0.6540610194206238 0.3176110088825226
          -0.48886600136756897 0.7127619981765747 0.5029720067977905 -0.8571199774742126 0.3337230086326599 0.3923960030078888
          -0.8939470052719116 0.24319800734519958 0.37644898891448975 -0.7371320128440857 0.5919370055198669 0.32595598697662354
          -0.8588989973068237 0.3503119945526123 0.3735960125923157 -0.9612039923667908 0.19398300349712372 0.19610700011253357
          -0.9135069847106934 -0.2599579989910126 -0.3129329979419708 -0.5435900092124939 -0.09969200193881989 -0.8334100246429443
          -0.9365180134773254 0.054575998336076736 -0.3463450074195862 -0.39766600728034973 0.11215999722480774 0.9106490015983582
          -0.7245810031890869 0.28097501397132874 0.6293129920959473 -0.7701169848442078 -0.4517360031604767 0.4503929913043976
          -0.36741799116134644 -0.9232829809188843 0.11204099655151367 -0.7115899920463562 -0.1993660032749176 0.6737160086631775
          -0.29307401180267334 -0.9164620041847229 -0.2724039852619171 -0.7498940229415894 0.011429999954998493 0.6614590287208557
          -0.34612101316452026 -0.5382660031318665 -0.7684199810028076 -0.4216899871826172 -0.4813239872455597 -0.7684429883956909
          -0.4083769917488098 -0.24412399530410767 -0.8795629739761353 -0.4417000114917755 -0.4678550064563751 -0.7655150294303894
          -0.3917289972305298 -0.2646850049495697 -0.8811870217323303 -0.36149901151657104 -0.3343540132045746 -0.8703600168228149
          -0.07362700253725052 -0.9914039969444275 -0.10815499722957611 -0.9035969972610474 -0.38469600677490234 0.18847200274467468
          -0.8430280089378357 -0.5378699898719788 0.0008709999965503812 -0.4955179989337921 -0.8439149856567383 -0.20559599995613098
          -0.40966299176216125 -0.4907430112361908 -0.7689909934997559 -0.5102429986000061 -0.6546499729156494 -0.5577499866485596
          -0.5159329771995544 -0.8533949851989746 -0.07436099648475647
          <InformationKey name="L2_NORM_RANGE" location="vtkDataArray" length="2">
            <Value index="0">
              0.99999937676
            </Value>
            <Value index="1">
              1.0000006094
            </Value>
          </InformationKey>
        </DataArray>
      </PointData>
      <CellData>
      </CellData>
      <Points>
        <DataArray type="Float32" Name="Points" NumberOfComponents="3" format="ascii" RangeMin="0.09353488597824045" RangeMax="0.12553903122070223">
          0.11618199944496155 0.029906999319791794 0.0203699991106987 0.11777400225400925 0.029293999075889587 0.020560000091791153
          0.11657600104808807 0.030256999656558037 0.021445000544190407 0.11727800220251083 0.02878900058567524 0.01969200000166893
          0.11140400171279907 0.03000500053167343 0.019915999844670296 0.11518599838018417 0.028429999947547913 0.01881599985063076
          0.11717399954795837 0.028269000351428986 0.019247999414801598 0.11799599975347519 0.02982800081372261 0.02179500088095665
          0.119998998939991 0.02797600068151951 0.021164000034332275 0.11781200021505356 0.028555000200867653 0.023372000083327293
          0.10894600301980972 0.03017600066959858 0.021588999778032303 0.11719200015068054 0.02843499928712845 0.025832999497652054
          0.11806699633598328 0.027533000335097313 0.025539999827742577 0.10378199815750122 0.02327599935233593 0.02047000080347061
          0.10047099739313126 0.026260999962687492 0.02264999970793724 0.1182129979133606 0.026704000309109688 0.01789899915456772
          0.11860600113868713 0.027413999661803246 0.018803000450134277 0.12020999938249588 0.028497999534010887 0.022304000332951546
          0.11896199733018875 0.026649000123143196 0.025185000151395798 0.12043700367212296 0.026782000437378883 0.02189899981021881
          0.12031400203704834 0.02707800082862377 0.02097800001502037 0.10071899741888046 0.027667000889778137 0.025502000004053116
          0.1017099991440773 0.027494000270962715 0.02731500007212162 0.10169800370931625 0.028308000415563583 0.023469999432563782
          0.11781200021505356 0.026055999100208282 0.026907000690698624 0.11568199843168259 0.02236899919807911 0.0284269992262125
          0.11678499728441238 0.02399200014770031 0.02783999964594841 0.1187020018696785 0.025211000815033913 0.02662999927997589
          0.11199100315570831 0.01744999922811985 0.0160910002887249 0.11256600171327591 0.01868399977684021 0.016705000773072243
          0.09942100197076797 0.018484000116586685 0.019682999700307846 0.09803900122642517 0.02002899907529354 0.02063800022006035
          0.1148340031504631 0.02206600084900856 0.017792999744415283 0.11586499959230423 0.023181000724434853 0.01773799955844879
          0.0985179990530014 0.021229000762104988 0.020973000675439835 0.11733900010585785 0.025596000254154205 0.017674999311566353
          0.09876900166273117 0.02509400062263012 0.022638000547885895 0.09919899702072144 0.025843000039458275 0.02311900071799755
          0.11792299896478653 0.025283999741077423 0.018167000263929367 0.11979500204324722 0.027007000520825386 0.02376299910247326
          0.11969300359487534 0.025419000536203384 0.025704000145196915 0.12009900063276291 0.026504000648856163 0.023886000737547874
          0.11630500108003616 0.016196999698877335 0.021278999745845795 0.11733999848365784 0.02309500053524971 0.018557000905275345
          0.11703900247812271 0.021031999960541725 0.019094999879598618 0.0989459976553917 0.02662299945950508 0.026149999350309372
          0.10064399987459183 0.027627000585198402 0.024746999144554138 0.09883800148963928 0.026670999825000763 0.025364000350236893
          0.10166200250387192 0.024894999340176582 0.028568999841809273 0.09977699816226959 0.026812000200152397 0.02354300022125244
          0.10011500120162964 0.02740900032222271 0.024095000699162483 0.11823999881744385 0.023646000772714615 0.02787799946963787
          0.11737900227308273 0.022319000214338303 0.028502000495791435 0.11652500182390213 0.021203000098466873 0.029059000313282013
          0.09941799938678741 0.02297299914062023 0.029749000445008278 0.10215800255537033 0.020258000120520592 0.030541999265551567
          0.10177099704742432 0.016011999920010567 0.032148998230695724 0.11080099642276764 0.015562999993562698 0.0312460009008646
          0.11213500052690506 0.015217999927699566 0.014979000203311443 0.11270800232887268 0.01765199936926365 0.016401000320911407
          0.1097629964351654 0.014959000051021576 0.014429000206291676 0.11150600016117096 0.016183000057935715 0.0149940000846982
          0.11328600347042084 0.018882999196648598 0.01696000061929226 0.11471399664878845 0.01988700032234192 0.01773099973797798
          0.11466299742460251 0.02095700055360794 0.017819000408053398 0.09713699668645859 0.017587000504136086 0.01947000063955784
          0.09754300117492676 0.01881599985063076 0.020260000601410866 0.09626500308513641 0.01970900036394596 0.020868999883532524
          0.11515899747610092 0.020726000890135765 0.017954999580979347 0.11609899997711182 0.02114499919116497 0.018254000693559647
          0.1171180009841919 0.0236239992082119 0.018303999677300453 0.09830799698829651 0.023831000551581383 0.02219800092279911
          0.09804700314998627 0.022683000192046165 0.02174600027501583 0.09761399775743484 0.02153399959206581 0.021321000531315804
          0.09774599969387054 0.024768000468611717 0.023082999512553215 0.11705899983644485 0.020086999982595444 0.02938699908554554
          0.11556199938058853 0.015964999794960022 0.018876999616622925 0.11348699778318405 0.005429000128060579 0.02087000012397766
          0.11620199680328369 0.013364000245928764 0.028219999745488167 0.11598099768161774 0.011339000426232815 0.027924999594688416
          0.11568800359964371 0.009277000091969967 0.028641000390052795 0.11536599695682526 0.007156999781727791 0.026472000405192375
          0.1165509968996048 0.014972000382840633 0.028410999104380608 0.11651500314474106 0.020193999633193016 0.01893400028347969
          0.09890499711036682 0.025980999693274498 0.02695699967443943 0.09800499677658081 0.02474600076675415 0.027334999293088913
          0.09838400036096573 0.026271000504493713 0.025993000715970993 0.0989459976553917 0.025306999683380127 0.02773899957537651
          0.11612299829721451 0.02028300054371357 0.02954299934208393 0.10036200284957886 0.020586999133229256 0.030574999749660492
          0.09935200214385986 0.021091999486088753 0.03034600056707859 0.09867600351572037 0.022727999836206436 0.029318999499082565
          0.09766700118780136 0.018933000043034554 0.030230000615119934 0.10069900006055832 0.018619000911712646 0.0315219983458519
          0.09990900009870529 0.01891399919986725 0.031238000839948654 0.09987799823284149 0.015982000157237053 0.03304300084710121
          0.09889200329780579 0.011008000001311302 0.03319599851965904 0.1003120020031929 0.017253000289201736 0.03229900076985359
          0.11562299728393555 0.018566999584436417 0.030274000018835068 0.11584100127220154 0.019387999549508095 0.029972000047564507
          0.11538799852132797 0.01753699965775013 0.03054100088775158 0.11407499760389328 0.015331000089645386 0.030538000166416168
          0.11167199909687042 0.015130000188946724 0.01445899996906519 0.11269000172615051 0.016467999666929245 0.015838000923395157
          0.11274799704551697 0.015267999842762947 0.015208999626338482 0.11266999691724777 0.012999000027775764 0.014736000448465347
          0.11374299973249435 0.018912000581622124 0.017170999199151993 0.11433500051498413 0.01761999912559986 0.017247000709176064
          0.1108120009303093 0.01346299983561039 0.013220000080764294 0.11052799969911575 0.011951000429689884 0.012662000022828579
          0.1110759973526001 0.014894000254571438 0.013919999822974205 0.10044699907302856 0.014314999803900719 0.016874000430107117
          0.11423800140619278 0.018850000575184822 0.01738099940121174 0.1147959977388382 0.01865600049495697 0.01762400008738041
          0.11566399782896042 0.02039100043475628 0.018107999116182327 0.11585699766874313 0.019036000594496727 0.01863900013267994
          0.09678000211715698 0.01634800061583519 0.01866300031542778 0.0946820005774498 0.01691799983382225 0.01980300061404705
          0.11564499884843826 0.015575000084936619 0.030292000621557236 0.11637800186872482 0.015355000272393227 0.02984599955379963
          0.11665099859237671 0.015297000296413898 0.029412999749183655 0.11325900256633759 0.004745000042021275 0.023750999942421913
          0.11471199989318848 0.006018000189214945 0.026078000664711 0.11269800364971161 0.004403000231832266 0.022187000140547752
          0.11169599741697311 0.0043310001492500305 0.019253000617027283 0.11112599819898605 0.005975000094622374 0.015579000115394592
          0.11592099815607071 0.013427999801933765 0.029718000441789627 0.1150439977645874 0.007708999793976545 0.028429999947547913
          0.11493100225925446 0.009428000077605247 0.029425999149680138 0.11468300223350525 0.0064119999296963215 0.027546999976038933
          0.09842900186777115 0.023959999904036522 0.028304999694228172 0.09728500247001648 0.015836000442504883 0.03227299824357033
          0.09650500118732452 0.01576399989426136 0.03135399892926216 0.09109800308942795 0.010981000028550625 0.024397000670433044
          0.09336800128221512 0.014661000110208988 0.0192050002515316 0.09879600256681442 0.01595200039446354 0.03278600051999092
          0.09614499658346176 0.013907000422477722 0.03387000039219856 0.09681200236082077 0.007972000166773796 0.031585998833179474
          0.10853499919176102 0.006051999982446432 0.029178999364376068 0.09575200080871582 0.01235199999064207 0.033893000334501266
          0.09499000012874603 0.011229000054299831 0.033640000969171524 0.11407800018787384 0.006382000166922808 0.028189999982714653
          0.11114100366830826 0.01228800043463707 0.013097000308334827 0.11113099753856659 0.010639999993145466 0.013544999994337559
          0.10945200175046921 0.008286000229418278 0.013034000061452389 0.11068099737167358 0.008817999623715878 0.013659999705851078
          0.09775900095701218 0.009519999846816063 0.017416000366210938 0.09603200107812881 0.009847000241279602 0.018042000010609627
          0.0950779989361763 0.010223000310361385 0.01839200034737587 0.09523899853229523 0.012071000412106514 0.01819000020623207
          0.0953570008277893 0.013864999637007713 0.01816600002348423 0.09657400101423264 0.014967000111937523 0.01817999966442585
          0.11253300309181213 0.004534999839961529 0.024181999266147614 0.11376100033521652 0.005268999841064215 0.025458000600337982
          0.11413499712944031 0.005762000102549791 0.026503000408411026 0.11139000207185745 0.003920000046491623 0.020771000534296036
          0.10989399999380112 0.0038689998909831047 0.021335000172257423 0.11093399673700333 0.0039090001955628395 0.019283000379800797
          0.11065399646759033 0.0040779998525977135 0.023253999650478363 0.11053100228309631 0.005576999858021736 0.01537800021469593
          0.1098719984292984 0.0051020001992583275 0.015495000407099724 0.11036600172519684 0.004412999842315912 0.017462000250816345
          0.1102520003914833 0.00711200013756752 0.014120000414550304 0.11083599925041199 0.007331999950110912 0.014516999945044518
          0.11360099911689758 0.005642999894917011 0.027055999264121056 0.09595300257205963 0.014794999733567238 0.03194800019264221
          0.09671200066804886 0.014866000041365623 0.03311700001358986 0.09240099787712097 0.010270999744534492 0.03040900081396103
          0.09147000312805176 0.00953499972820282 0.02892499975860119 0.0953890010714531 0.013938999734818935 0.032652001827955246
          0.09305799752473831 0.010781999677419662 0.031355999410152435 0.09106600284576416 0.009436000138521194 0.02770400047302246
          0.09050700068473816 0.009518999606370926 0.021601999178528786 0.09150499850511551 0.012110999785363674 0.01933000050485134
          0.09097100049257278 0.010777000337839127 0.02023099921643734 0.09543299674987793 0.012786000035703182 0.03381900116801262
          0.09440000355243683 0.01185499969869852 0.033330000936985016 0.09153900295495987 0.008183999918401241 0.029184000566601753
          0.09334000200033188 0.006572999991476536 0.026938000693917274 0.09354999661445618 0.00990699976682663 0.03236500173807144
          0.09597700089216232 0.006566999945789576 0.02018599957227707 0.09385299682617188 0.01102100033313036 0.03282500058412552
          0.09769000113010406 0.007817000150680542 0.018400000408291817 0.09597299993038177 0.008142000064253807 0.019019000232219696
          0.09423500299453735 0.010603000409901142 0.018693000078201294 0.09243199974298477 0.009684000164270401 0.02017500065267086
          0.09337799996137619 0.010986000299453735 0.01896899938583374 0.09254200011491776 0.011376000009477139 0.019214000552892685
          0.10946299880743027 0.0038640000857412815 0.01962600089609623 0.0908610001206398 0.008534999564290047 0.02729099988937378
          0.09065999835729599 0.00829199980944395 0.025304999202489853 0.0926470011472702 0.007329000160098076 0.023121999576687813
          0.09146200120449066 0.010285000316798687 0.02027300000190735 0.09240200370550156 0.0080960001796484 0.021330999210476875
          0.09200700372457504 0.007294999901205301 0.025133000686764717
          <InformationKey name="L2_NORM_RANGE" location="vtkDataArray" length="2">
            <Value index="0">
              0.093534885978
            </Value>
            <Value index="1">
              0.12553903122
            </Value>
          </InformationKey>
        </DataArray>
      </Points>
      <Verts>
        <DataArray type="Int64" Name="connectivity" format="ascii" RangeMin="1e+299" RangeMax="-1e+299">
        </DataArray>
        <DataArray type="Int64" Name="offsets" format="ascii" RangeMin="1e+299" RangeMax="-1e+299">
        </DataArray>
      </Verts>
      <Lines>
        <DataArray type="Int64" Name="connectivity" format="ascii" RangeMin="1e+299" RangeMax="-1e+299">
        </DataArray>
        <DataArray type="Int64" Name="offsets" format="ascii" RangeMin="1e+299" RangeMax="-1e+299">
        </DataArray>
      </Lines>
      <Strips>
        <DataArray type="Int64" Name="connectivity" format="ascii" RangeMin="1e+299" RangeMax="-1e+299">
        </DataArray>
        <DataArray type="Int64" Name="offsets" format="ascii" RangeMin="1e+299" RangeMax="-1e+299">
        </DataArray>
      </Strips>
      <Polys>
        <DataArray type="Int32" Name="connectivity" format="ascii" RangeMin="0" RangeMax="194">
          2 1 0 0 1 3
          0 4 2 0 6 5
          0 3 6 4 0 5
          1 2 7 1 8 3
          8 1 7 2 9 7
          4 10 2 12 2 11
          12 9 2 11 2 10
          3 8 6 13 4 5
          14 4 13 14 10 4
          13 5 15 5 16 15
          5 6 16 6 8 16
          17 8 7 17 7 18
          9 18 7 17 19 8
          16 8 20 20 8 19
          18 9 12 22 10 21
          22 11 10 14 23 10
          23 21 10 11 24 12
          22 25 11 26 11 25
          11 26 24 12 27 18
          12 24 27 29 28 13
          13 28 30 30 31 13
          13 33 32 13 34 14
          13 35 33 13 15 35
          29 13 32 31 34 13
          36 14 34 37 23 14
          14 36 37 15 20 38
          35 15 38 16 20 15
          19 17 39 39 17 18
          18 40 39 40 18 27
          39 41 19 40 19 41
          40 42 19 42 20 19
          38 20 43 44 43 20
          42 44 20 22 21 45
          46 21 23 47 21 46
          45 21 47 22 45 48
          22 48 25 37 49 23
          49 50 23 50 46 23
          24 51 27 51 24 26
          51 25 52 52 25 53
          25 48 54 25 54 55
          55 56 25 25 56 57
          25 57 53 25 51 26
          40 27 51 28 59 58
          28 61 60 60 30 28
          58 61 28 59 28 29
          29 63 62 29 64 63
          29 32 64 62 59 29
          60 65 30 31 30 66
          65 66 30 34 31 67
          31 66 67 32 69 68
          33 70 32 69 32 70
          68 64 32 33 35 70
          34 72 71 71 36 34
          34 73 72 67 73 34
          35 38 70 37 36 74
          74 36 71 74 49 37
          43 70 38 39 40 41
          40 51 52 52 75 40
          42 40 75 42 77 76
          79 42 78 79 80 42
          80 81 42 42 75 82
          42 82 78 42 81 77
          42 76 83 42 83 44
          70 43 69 44 69 43
          44 83 69 48 45 84
          45 86 85 85 84 45
          86 45 47 47 46 50
          47 50 74 47 74 86
          48 87 54 48 84 87
          49 74 50 53 75 52
          57 88 53 75 53 88
          89 55 54 90 89 54
          91 54 87 54 91 92
          92 90 54 55 94 93
          55 89 94 55 93 56
          96 56 95 56 97 95
          56 93 97 56 96 57
          99 57 98 57 100 98
          101 57 96 57 99 88
          100 57 101 58 102 61
          58 59 103 104 58 103
          58 105 102 58 104 105
          62 106 59 107 103 59
          107 59 106 109 60 108