<?xml version="1.0"?>
<VTKFile type="PolyData" version="0.1" byte_order="LittleEndian" header_type="UInt32" compressor="vtkZLibDataCompressor">
  <PolyData>
    <Piece NumberOfPoints="2767" NumberOfVerts="0" NumberOfLines="0" NumberOfStrips="0" NumberOfPolys="5442">
      <PointData Normals="Normals">
        <DataArray type="Float32" Name="Normals" NumberOfComponents="3" format="ascii" RangeMin="0.9999992308516745" RangeMax="1.0000007722333706">
          0.9876670241355896 0.15123499929904938 0.04052099958062172 0.6228309869766235 -0.6495760083198547 0.436040997505188
          0.3329080045223236 -0.5309079885482788 -0.7793009877204895 0.6710500121116638 0.6745830178260803 0.3076210021972656
          0.6630920171737671 0.04199900105595589 0.7473589777946472 0.7475510239601135 0.5534150004386902 -0.36728599667549133
          0.32416200637817383 -0.5927249789237976 0.7372890114784241 -0.5295330286026001 -0.10644599795341492 -0.8415840268135071
          -0.042132001370191574 0.4332450032234192 -0.9002910256385803 -0.4725399911403656 -0.8787029981613159 0.06773000210523605
          -0.023847000673413277 0.8882709741592407 -0.45869898796081543 -0.2531769871711731 0.4623129963874817 -0.8498049974441528
          0.42088401317596436 0.8929629921913147 -0.1596039980649948 0.5056269764900208 0.020400000736117363 0.8625109791755676
          0.3256939947605133 -0.41278499364852905 0.8506069779396057 -0.7303140163421631 0.02157600037753582 -0.6827700138092041
          -0.49129900336265564 -0.8655030131340027 0.0976170003414154 -0.5654979944229126 -0.04917699843645096 -0.82328200340271
          -0.38449400663375854 -0.22970899939537048 -0.894091010093689 -0.1711519956588745 0.2780889868736267 -0.9451839923858643
          0.4641929864883423 0.88475102186203 0.04171999916434288 0.37745100259780884 0.12092699855566025 0.9180999994277954
          0.17142200469970703 -0.3379090130329132 0.9254360198974609 -0.4071100056171417 -0.9074429869651794 0.10396499931812286
          -0.4168199896812439 -0.9057340025901794 0.07685299962759018 -0.29374200105667114 -0.26176899671554565 -0.9193429946899414
          -0.010211000218987465 0.34429600834846497 -0.9388059973716736 0.4380050003528595 0.8962990045547485 0.0692799985408783
          0.2581309974193573 0.2042510062456131 0.944271981716156 0.014356999658048153 -0.29910698533058167 0.9541119933128357
          0.0857589989900589 0.13472400605678558 0.9871649742126465 0.02775700017809868 0.6371849775314331 -0.7702109813690186
          -0.1833460032939911 -0.33912500739097595 -0.9227020144462585 0.15381699800491333 0.3694609999656677 -0.9164270162582397
          0.43224000930786133 0.8900520205497742 0.14483100175857544 0.10166899859905243 0.16311000287532806 0.9813550114631653
          0.016116999089717865 0.2439880073070526 0.9696440100669861 0.03523999825119972 0.36719799041748047 0.9294750094413757
          -0.2446179986000061 -0.705947995185852 -0.664680004119873 -0.028629999607801437 -0.3404810130596161 -0.9398149847984314
          0.2838590145111084 0.38200199604034424 -0.8794869780540466 0.4082930088043213 0.8987200260162354 0.15999700129032135
          0.4091379940509796 0.907496988773346 0.09516599774360657 -0.12462200224399567 0.29370298981666565 0.947737991809845
          -0.4269680082798004 -0.44904300570487976 0.7848939895629883 -0.2627770006656647 -0.8857830166816711 -0.3825410008430481
          0.1181500032544136 -0.353628009557724 -0.9278939962387085 0.39946699142456055 0.40373700857162476 -0.8230569958686829
          0.5450649857521057 0.4650900065898895 -0.6975640058517456 0.10058599710464478 0.8524029850959778 0.5131189823150635
          -0.35111498832702637 0.27174800634384155 0.8960310220718384 -0.5380370020866394 -0.5578129887580872 0.6319500207901001
          -0.187950000166893 -0.9377959966659546 -0.2919139862060547 0.34909701347351074 -0.2212119996547699 -0.9106019735336304
          0.5421509742736816 -0.19548599421977997 -0.8172249794006348 0.6370270252227783 0.5934479832649231 -0.49195098876953125
          -0.4689120054244995 0.4086590111255646 0.78302001953125 -0.468766987323761 0.38341400027275085 0.7957710027694702
          -0.6029829978942871 -0.590499997138977 0.5363960266113281 -0.021331999450922012 -0.8926830291748047 -0.45017901062965393
          -0.21586400270462036 -0.9541800022125244 -0.20722700655460358 0.7214440107345581 -0.1840360015630722 -0.6675699949264526
          0.39311501383781433 0.8241099715232849 0.4078029990196228 -0.34726598858833313 0.707912027835846 0.6150339841842651
          -0.6093789935112 0.38459399342536926 0.6933580040931702 -0.7813190221786499 -0.10770300030708313 0.6147680282592773
          -0.950016975402832 -0.18842700123786926 0.24892300367355347 0.03938400000333786 -0.8516119718551636 -0.522691011428833
          0.8707929849624634 -0.22703899443149567 -0.4360879957675934 0.914201021194458 0.4031600058078766 -0.04120299965143204
          0.2027440071105957 0.8944339752197266 0.3986009955406189 -0.8021820187568665 0.3438670039176941 0.4881179928779602
          -0.7990999817848206 0.5398499965667725 0.2645770013332367 -0.9573010206222534 -0.24118299782276154 -0.15938900411128998
          -0.00711200013756752 -0.8949689865112305 -0.44607099890708923 0.8703060150146484 -0.44641900062561035 -0.2080339938402176
          0.9962239861488342 0.08267699927091599 0.02648399956524372 0.4288730025291443 0.7983869910240173 0.4226660132408142
          0.4060029983520508 0.8390719890594482 0.36210501194000244 -0.8364220261573792 0.547065019607544 -0.03344200178980827
          -0.9346650242805481 -0.20193800330162048 -0.2926129996776581 -0.14285099506378174 -0.9265999794006348 -0.3478580117225647
          0.8834490180015564 -0.4561130106449127 0.10714100301265717 0.9803119897842407 0.0013569999719038606 0.1974489986896515
          0.8526049852371216 0.11045599728822708 0.5107489824295044 0.0778760015964508 0.9732750058174133 0.21603399515151978
          -0.8269799947738647 0.4160520136356354 -0.3781589865684509 -0.8335199952125549 -0.16896399855613708 -0.5260180234909058
          0.048778001219034195 -0.9974750280380249 -0.05162300169467926 0.8740149736404419 -0.07746999710798264 0.4796830117702484
          0.9742990136146545 -0.2154110074043274 0.06586900353431702 0.847940981388092 0.3699420094490051 -0.37965598702430725
          -0.3270530104637146 0.5636609792709351 -0.7584999799728394 -0.4060620069503784 0.3030869960784912 -0.8621199727058411
          -0.24544499814510345 -0.2220740020275116 -0.9436309933662415 0.6326249837875366 -0.7702620029449463 -0.08051200211048126
          0.9742869734764099 0.21528400480747223 0.06646600365638733 0.47357499599456787 -0.6244080066680908 0.6211609840393066
          0.42318999767303467 -0.7510340213775635 -0.5068119764328003 0.5991629958152771 0.14879800379276276 0.7866780161857605
          0.5320079922676086 0.586027979850769 -0.6111779808998108 0.5092189908027649 0.8604729771614075 -0.016798000782728195
          0.3070969879627228 -0.4772459864616394 0.8233640193939209 -0.36463698744773865 0.1107650026679039 -0.9245380163192749
          -0.5145149827003479 -0.8473970293998718 0.13112300634384155 0.533141016960144 0.31560900807380676 0.7849529981613159
          0.43038100004196167 0.8621199727058411 -0.2674350142478943 -0.23744599521160126 0.6476809978485107 -0.7239670157432556
          -0.10731299966573715 0.6748870015144348 -0.730076014995575 -0.04959600046277046 0.5377389788627625 -0.8416510224342346
          0.269228994846344 -0.33403998613357544 0.9032899737358093 -0.5782229900360107 0.14375199377536774 -0.8031150102615356
          -0.5556129813194275 -0.8286139965057373 0.06850200146436691 0.400875985622406 0.38741999864578247 0.8301830291748047
          0.39970898628234863 0.8550630211830139 -0.3303009867668152 -0.05449900031089783 0.2766689956188202 -0.9594190120697021
          -0.42770999670028687 0.033663999289274216 -0.9032890200614929 -0.2488590031862259 -0.026789000257849693 -0.9681689739227295
          0.08402600139379501 -0.3074449896812439 0.9478489756584167 -0.5037479996681213 -0.8598960041999817 -0.08255799859762192
          0.3115909993648529 0.4946820139884949 0.8112959861755371 0.4135349988937378 0.8047170042991638 -0.42593398690223694
          0.05999099835753441 0.2417210042476654 -0.9684900045394897 -0.1053519994020462 -0.09264799952507019 -0.9901099801063538
          -0.3950180113315582 -0.84129798412323 -0.36902299523353577 -0.08602099865674973 -0.36797401309013367 0.9258490204811096
          0.12642499804496765 0.37997400760650635 0.9163169860839844 0.44047001004219055 0.6256740093231201 -0.6438310146331787
          0.04003100097179413 -0.04577299952507019 -0.9981499910354614 0.005570999812334776 -0.10801400244235992 -0.9941340088844299
          -0.33454400300979614 -0.7765629887580872 -0.5338820219039917 -0.26472198963165283 -0.5422549843788147 0.7974219918251038
          0.01387299969792366 0.30541300773620605 0.952118992805481 0.44969800114631653 0.8061760067939758 -0.38451600074768066
          0.12811699509620667 -0.05021600052714348 -0.9904869794845581 0.05161599814891815 -0.17347200214862823 -0.9834849834442139
          -0.3894149959087372 -0.9045060276985168 -0.17385199666023254 -0.2936770021915436 -0.436352014541626 0.8504999876022339
          -0.07968000322580338 0.3158240020275116 0.9454659819602966 0.3974800109863281 0.9087709784507751 0.1270589977502823
          0.24250100553035736 -0.021723000332713127 -0.9699079990386963 0.1243939995765686 -0.2650749981403351 -0.9561700224876404
          -0.5135229825973511 -0.8240690231323242 0.2391750067472458 -0.19504399597644806 0.02002600021660328 0.9805899858474731
          -0.3050540089607239 0.21574600040912628 0.9275749921798706 0.17675599455833435 0.9171630144119263 0.3571690022945404
          0.46842899918556213 0.29612401127815247 -0.8323969841003418 0.26989299058914185 -0.4202849864959717 -0.8663250207901001
          -0.40081700682640076 -0.8055850267410278 0.43632298707962036 -0.20129600167274475 0.3235509991645813 0.9245510101318359
          -0.39489099383354187 0.3951689898967743 0.8293989896774292 0.08000499755144119 0.9453930258750916 0.31595999002456665
          0.5875729918479919 0.45684900879859924 -0.6678670048713684 0.47505900263786316 -0.3097139894962311 -0.8236479759216309
          -0.39297500252723694 -0.9067040085792542 0.15316200256347656 -0.4448559880256653 0.2031240016222 0.87226402759552
          -0.6104339957237244 0.3119730055332184 0.7280409932136536 -0.0643559992313385 0.9151250123977661 0.3980019986629486
          0.7038559913635254 0.5219190120697021 -0.4818589985370636 0.6803969740867615 -0.22741299867630005 -0.6966660022735596
          -0.1515199989080429 -0.9743520021438599 -0.166375994682312 -0.670943021774292 -0.06122799962759018 0.7389770150184631
          -0.8501830101013184 0.16896699368953705 0.49863699078559875 -0.4719089865684509 0.7405800223350525 0.47837498784065247
          0.6598520278930664 0.7507830262184143 -0.03031899966299534 0.8931049704551697 -0.07864599674940109 -0.4429199993610382
          0.06975200027227402 -0.9231160283088684 -0.37814199924468994 -0.8477470278739929 -0.3383139967918396 0.40849700570106506
          -0.9795380234718323 0.12349899858236313 0.15891100466251373 -0.4974200129508972 0.8049960136413574 0.3233479857444763
          0.6248990297317505 0.7465980052947998 0.2282389998435974 0.9692040085792542 -0.18858900666236877 -0.15836000442504883
          0.2993040084838867 -0.8512300252914429 -0.43107399344444275 -0.843084990978241 -0.5323219895362854 -0.07642199844121933
          -0.9945889711380005 0.08229000121355057 -0.0634159967303276 -0.2248149961233139 0.9357839822769165 0.27160000801086426
          0.7061409950256348 0.6373140215873718 0.3085379898548126 0.9243959784507751 -0.37985900044441223 0.034623000770807266
          0.36484500765800476 -0.8797699809074402 -0.3047820031642914 -0.5325850248336792 -0.7711719870567322 -0.34877800941467285
          -0.8134459853172302 -0.3929139971733093 -0.4288640022277832 -0.45923998951911926 0.8589209914207458 -0.22661300003528595
          0.7195129990577698 0.5374209880828857 0.439862996339798 0.8621360063552856 -0.32245200872421265 0.390828013420105
          0.06533399969339371 -0.9802839756011963 -0.18647900223731995 -0.17818200588226318 -0.9068099856376648 -0.38203001022338867
          -0.6592509746551514 0.2970289885997772 -0.6907690167427063 -0.5879999995231628 -0.23197099566459656 -0.7748839855194092
          -0.36827099323272705 -0.8261460065841675 -0.4264509975910187 0.6502810120582581 0.7596840262413025 -0.0037010000087320805
          0.012120000086724758 0.6095849871635437 -0.7926279902458191 0.9239209890365601 0.029405999928712845 0.3814530074596405
          0.06597799807786942 -0.8480730056762695 -0.5257560014724731 -0.5357040166854858 0.008492999710142612 -0.8443629741668701
          -0.8503329753875732 -0.15003399550914764 -0.5044050216674805 -0.5579090118408203 0.33085399866104126 -0.7610999941825867
          0.1443209946155548 0.5338550209999084 -0.8331689834594727 -0.2632080018520355 -0.8371210098266602 -0.4795309901237488
          0.2331169992685318 -0.8209589719772339 -0.5212309956550598 -0.5067070126533508 -0.7419149875640869 -0.4391010105609894
          -0.9879059791564941 0.10249699652194977 -0.11634700000286102 -0.2985149919986725 0.9542829990386963 -0.015277000144124031
          0.8584039807319641 0.2274789959192276 0.4597780108451843 0.580394983291626 -0.7687849998474121 -0.2685370147228241
          0.38409900665283203 -0.9205769896507263 -0.0707470029592514 0.7924469709396362 -0.3870150148868561 0.4714309871196747
          0.5078319907188416 -0.7157570123672485 -0.4793739914894104 -0.7498319745063782 -0.5312460064888 -0.39437198638916016
          -0.9907810091972351 0.1354600042104721 0.0018779999809339643 -0.05824799835681915 0.8945779800415039 0.4431000053882599
          0.6838139891624451 0.45395299792289734 0.5712490081787109 0.9951900243759155 -0.0940999984741211 0.027255000546574593
          0.9543120265007019 -0.26304298639297485 0.14176300168037415 0.8046429753303528 0.403780996799469 0.43532800674438477
          0.9739120006561279 0.0670280009508133 -0.2168000042438507 0.3097659945487976 -0.6796969771385193 -0.6648730039596558
          -0.8216639757156372 -0.5412889719009399 -0.17853400111198425 -0.8219050168991089 0.3373740017414093 0.4589659869670868
          0.10103899985551834 0.8672009706497192 0.4875989854335785 0.8907480239868164 0.44721299409866333 0.08104400336742401
          0.8661090135574341 0.40462398529052734 0.29348599910736084 0.7728620171546936 0.5689679980278015 -0.2809959948062897
          0.8554630279541016 0.16800500452518463 -0.48985499143600464 0.3045629858970642 -0.7038840055465698 -0.6417070031166077
          -0.7155900001525879 -0.6848400235176086 0.13757100701332092 -0.6909260153770447 0.14685499668121338 0.7078530192375183
          0.7193809747695923 0.6510440111160278 0.242139995098114 0.6833549737930298 0.7239440083503723 -0.09450499713420868
          0.5791980028152466 0.7639409899711609 -0.2844710052013397 0.7315000295639038 0.24785199761390686 -0.6351990103721619
          0.7194160223007202 0.20465800166130066 -0.6637439727783203 0.24821999669075012 -0.7226200103759766 -0.6451410055160522
          -0.6532419919967651 -0.6686480045318604 0.3552260100841522 -0.40259501338005066 0.5802220106124878 0.7079970240592957
          -0.23666900396347046 0.6758729815483093 0.6979849934577942 0.5784159898757935 0.6748409867286682 -0.45828500390052795
          0.585972011089325 0.235152006149292 -0.7754619717597961 0.5726789832115173 0.19752100110054016 -0.795628011226654
          0.06197499856352806 -0.7861369848251343 -0.6149370074272156 -0.6154500246047974 -0.5718399882316589 0.5424209833145142
          -0.5432199835777283 -0.5533909797668457 0.6314030289649963 -0.08793699741363525 0.5973529815673828 0.7971429824829102
          0.5333719849586487 0.6843420267105103 -0.4971820116043091 0.4706040024757385 0.2529810070991516 -0.8453009724617004
          0.4470199942588806 0.12120100110769272 -0.8862749934196472 -0.1297769993543625 -0.8181570172309875 -0.5601570010185242
          -0.20598700642585754 -0.8209789991378784 -0.5325049757957458 -0.49730899930000305 -0.5725240111351013 0.6518440246582031
          0.06638900190591812 0.630020022392273 0.7737360000610352 0.5050820112228394 0.6596159934997559 -0.5565950274467468
          0.4084630012512207 0.2806600034236908 -0.8685550093650818 0.35171398520469666 0.11745499819517136 -0.9287099838256836
          0.26903000473976135 0.10203800350427628 -0.9577109813690186 -0.185248002409935 -0.6846399903297424 -0.7049480080604553
          -0.46092700958251953 -0.679934024810791 0.5702940225601196 0.1675640046596527 0.639726996421814 0.7501140236854553
          0.4813379943370819 0.7023730278015137 -0.5243909955024719 0.3137960135936737 0.20433500409126282 -0.9272429943084717
          0.20071999728679657 0.2092359960079193 -0.9570429921150208 0.17442500591278076 0.2375359982252121 -0.955590009689331
          -0.25379499793052673 -0.6191099882125854 -0.743162989616394 -0.36000698804855347 -0.6216109991073608 0.695697009563446
          0.1962369978427887 0.4730120003223419 0.8589239716529846 0.49560099840164185 0.739113986492157 -0.4561690092086792
          0.5140349864959717 0.8556299805641174 -0.060541000217199326 0.1700509935617447 0.40695399045944214 -0.8974800109863281
          0.0813559964299202 0.2941870093345642 -0.9522789716720581 -0.39360401034355164 -0.627780020236969 -0.6715409755706787
          -0.3303939998149872 -0.6644219756126404 0.6703600287437439 0.11690200120210648 0.15003900229930878 0.9817450046539307
          0.21111199259757996 0.047325000166893005 0.976315975189209 0.5413699746131897 0.8405290246009827 -0.020726000890135765
          0.12481900304555893 0.4714139997959137 -0.8730350136756897 -0.018610000610351562 0.36612600088119507 -0.9303789734840393
          -0.5083450078964233 -0.5600429773330688 -0.6541690230369568 -0.32477301359176636 -0.7239199876785278 0.6086559891700745
          -0.25987398624420166 -0.7831659913063049 0.5649030208587646 0.25712400674819946 -0.10206899791955948 0.9609730243682861
          0.5746430158615112 0.803301990032196 0.15649700164794922 0.07832399755716324 0.6296390295028687 -0.7729300260543823
          -0.1485919952392578 0.4314059913158417 -0.8898370265960693 -0.5668389797210693 -0.5823150277137756 -0.5827550292015076
          0.405815988779068 -0.7927849888801575 -0.45475900173187256 0.023468000814318657 -0.7767450213432312 0.6293780207633972
          0.5237190127372742 -0.3693850040435791 0.767641007900238 0.6167759895324707 0.6370689868927002 -0.46230998635292053
          0.3099539875984192 0.6654350161552429 -0.6790609955787659 0.05158599838614464 0.28541499376296997 -0.9570149779319763
          0.3047010004520416 -0.9507279992103577 -0.05720600113272667 0.3235830068588257 -0.4721429944038391 -0.8199849724769592
          0.689320981502533 0.5565770268440247 -0.46374401450157166 0.1356319934129715 0.013446000404655933 0.990667998790741
          -0.21669399738311768 -0.9307069778442383 0.29466700553894043 0.4814479947090149 0.11698900163173676 0.8686320185661316
          0.23601600527763367 0.24668900668621063 -0.9399150013923645 0.38505399227142334 0.5020679831504822 -0.7743780016899109
          -0.22172600030899048 -0.41774100065231323 -0.8810960054397583 0.19038300216197968 0.8724150061607361 -0.45016300678253174
          0.3278689980506897 0.8959519863128662 0.29961898922920227 0.42999300360679626 0.9004030227661133 -0.0661809965968132
          0.12499599903821945 0.029162000864744186 0.9917290210723877 -0.2935729920864105 -0.828728973865509 0.4764690101146698
          0.013133999891579151 0.503125011920929 -0.864113986492157 -0.36973100900650024 -0.5584239959716797 -0.7426049709320068
          0.06026399880647659 0.39845600724220276 -0.9152060151100159 0.2188429981470108 0.6325380206108093 -0.7429699897766113
          0.26506200432777405 0.4711869955062866 -0.841264009475708 0.4684019982814789 0.8755080103874207 -0.11868000030517578
          0.09068900346755981 0.16356199979782104 0.9823560118675232 -0.37547600269317627 -0.7188130021095276 0.5850859880447388
          -0.328014999628067 -0.6189129948616028 -0.7136890292167664 0.18061700463294983 0.3297030031681061 -0.9266459941864014
          0.2707670032978058 0.30005401372909546 -0.9146869778633118 0.2826769948005676 0.37676000595092773 -0.882125973701477
          0.4979330003261566 0.8085600137710571 -0.3135159909725189 -0.0034890000242739916 0.18422000110149384 0.9828789830207825
          -0.41575300693511963 -0.6635689735412598 0.621953010559082 -0.266294002532959 -0.6970940232276917 -0.6656929850578308
          -0.2113649994134903 -0.6823340058326721 -0.6998180150985718 0.3647409975528717 0.3492709994316101 -0.8631179928779602
          0.30497899651527405 0.23026399314403534 -0.9241030216217041 0.5485730171203613 0.7801060080528259 -0.3008350133895874
          -0.1082570031285286 0.16147099435329437 0.9809219837188721 -0.4688180088996887 -0.628184974193573 0.6209620237350464
          -0.5088980197906494 -0.6184009909629822 0.5988349914550781 -0.10816299915313721 -0.6962130069732666 -0.7096390128135681
          0.4524179995059967 0.3175860047340393 -0.8333410024642944 0.40305501222610474 0.21845200657844543 -0.8887209892272949
          0.5362619757652283 0.8299769759178162 -0.1535000056028366 -0.15793000161647797 0.24738499522209167 0.9559599757194519
          -0.22369199991226196 0.3469589948654175 0.9108139872550964 -0.5771620273590088 -0.589917004108429 0.5646960139274597
          -0.08360199630260468 -0.7413889765739441 -0.6658480167388916 0.5592309832572937 0.2965629994869232 -0.7741519808769226
          0.555446982383728 0.31736400723457336 -0.7686089873313904 0.5043910145759583 0.8634039759635925 -0.011109000071883202
          0.5102319717407227 0.8591830134391785 0.038307998329401016 -0.3229129910469055 0.43901801109313965 0.8384450078010559
          -0.6838399767875671 -0.5383229851722717 0.49251601099967957 -0.01706800051033497 -0.7755150198936462 -0.6310989856719971
          0.6730110049247742 0.22545099258422852 -0.7044339776039124 0.6911029815673828 0.4155130088329315 -0.591376006603241
          0.7807019948959351 0.40644899010658264 -0.47466200590133667 0.4440020024776459 0.884223997592926 0.14495199918746948
          -0.406715989112854 0.4728040099143982 0.7816889882087708 -0.7369030117988586 -0.5478619933128357 0.3960059881210327
          0.13906699419021606 -0.790556013584137 -0.5963910222053528 0.779833972454071 0.22828200459480286 -0.582876980304718
          0.9182289838790894 0.24258600175380707 -0.31306299567222595 0.8392450213432312 0.5223699808120728 -0.15099099278450012
          0.6450459957122803 0.7538040280342102 0.12528300285339355 -0.7765100002288818 0.03617500141263008 0.629065990447998
          -0.8115940093994141 -0.5631930232048035 0.15533700585365295 0.17030799388885498 -0.7238500118255615 -0.6686080098152161
          0.9910290241241455 0.015424000099301338 -0.13275699317455292 0.29313498735427856 -0.6958619952201843 -0.6556280255317688
          0.856190025806427 0.47802498936653137 0.19604000449180603 0.5617200136184692 0.7203819751739502 0.4068410098552704
          -0.8137549757957458 0.3966430127620697 0.4248250126838684 -0.8646479845046997 -0.46045899391174316 -0.20089900493621826
          -0.051392000168561935 -0.7922049760818481 -0.6080870032310486 0.9161829948425293 -0.35233500599861145 -0.19096599519252777
          -0.8501120209693909 -0.4069480001926422 -0.3342210054397583 0.8510869741439819 0.37439700961112976 0.3680739998817444
          0.28592199087142944 0.7893620133399963 0.5432819724082947 -0.8586490154266357 0.45963600277900696 0.226841002702713
          -0.8486220240592957 -0.4533829987049103 -0.2725510001182556 -0.21081499755382538 -0.8273910284042358 -0.5205590128898621
          0.7940930128097534 -0.6075029969215393 -0.018866999074816704 -0.9424260258674622 0.3343459963798523 -0.006779999937862158
          0.7582150101661682 0.39096900820732117 0.5217790007591248 0.0797950029373169 0.8591089844703674 0.5055339932441711
          -0.8325260281562805 -0.1372620016336441 -0.5367130041122437 -0.32414600253105164 -0.6738690137863159 -0.6639500260353088
          0.7950959801673889 -0.4592509865760803 0.39612001180648804 -0.17885400354862213 0.9800410270690918 0.086776003241539
          0.6862819790840149 0.3209820091724396 0.6526769995689392 -0.4352650046348572 0.1323470026254654 -0.8905220031738281
          0.38405299186706543 -0.6714760065078735 -0.6337379813194275 0.8468480110168457 0.5213199853897095 0.1052360013127327
          -0.08714000135660172 0.5222219824790955 -0.8483459949493408 0.680761992931366 0.7321469783782959 -0.02289300039410591
          0.4869070053100586 -0.4281899929046631 0.7612980008125305 0.6980379819869995 0.7101640105247498 0.09170900285243988
          0.5692139863967896 0.7896260023117065 -0.22910000383853912 0.5921580195426941 -0.4859049916267395 0.6428419947624207
          -0.32847699522972107 0.5853549838066101 -0.7412580251693726 -0.6133559942245483 0.5709729790687561 -0.5456969738006592
          0.35597699880599976 -0.39853399991989136 0.8452519774436951 -0.635142982006073 -0.7642499804496765 -0.11187300086021423
          -0.7518380284309387 -0.659080982208252 -0.018765000626444817 0.6819909811019897 0.6583729982376099 0.31848499178886414
          -0.13102500140666962 0.6515809893608093 -0.7471780180931091 0.5112429857254028 0.7845749855041504 -0.350816011428833
          0.7073460221290588 -0.5804849863052368 0.4033600091934204 -0.7373430132865906 0.5780820250511169 -0.349494993686676
          -0.6941450238227844 -0.7064669728279114 0.1380860060453415 -0.8422049880027771 -0.1750199943780899 -0.5099599957466125
          -0.91907799243927 -0.32263100147247314 -0.22628599405288696 -0.9796130061149597 -0.20073500275611877 -0.007957999594509602
          0.08707000315189362 -0.5211910009384155 0.8489869832992554 -0.6460719704627991 -0.7244889736175537 -0.24022500216960907
          -0.6193850040435791 -0.26423200964927673 -0.7392860054969788 -0.7073959708213806 -0.1467529982328415 -0.691415011882782
          0.6265640258789062 0.6380370259284973 0.44757699966430664 -0.0132039999589324 0.7058910131454468 -0.7081980109214783
          0.7715989947319031 -0.5577629804611206 0.30583399534225464 0.5184040069580078 0.7444019913673401 -0.4208590090274811
          -0.7868750095367432 0.5429850220680237 -0.2932490110397339 -0.6177510023117065 -0.725068986415863 0.3043999969959259
          -0.9603239893913269 -0.2509920001029968 0.12157899886369705 -0.5024970173835754 -0.7668330073356628 0.3993290066719055
          -0.20857200026512146 -0.8321520090103149 0.5138300061225891 -0.6297770142555237 -0.6826199889183044 -0.3706890046596527
          -0.5723410248756409 -0.35994699597358704 -0.7367920279502869 -0.06026399880647659 0.5672630071640015 -0.8213289976119995
          0.07818999886512756 -0.29444900155067444 0.9524629712104797 0.5679469704627991 0.800108015537262 0.1930380016565323
          0.9033300280570984 -0.40877899527549744 0.12997600436210632 0.6064450144767761 0.6362529993057251 -0.4768719971179962
          -0.6455860137939453 0.7242680191993713 -0.2421869933605194 -0.9573379755020142 -0.1603260040283203 0.24041500687599182
          -0.42276400327682495 -0.7682009935379028 0.48076900839805603 -0.5643889904022217 -0.7052389979362488 -0.42907199263572693
          -0.4909200072288513 -0.406792014837265 -0.7704010009765625 0.029725000262260437 0.4460099935531616 -0.8945339918136597
          -0.5475689768791199 -0.6841679811477661 -0.4817500114440918 -0.33880600333213806 -0.6259859800338745 0.7023900151252747
          0.5311679840087891 0.6886770129203796 0.49354299902915955 0.6338989734649658 -0.7693520188331604 0.0791739970445633
          0.29392001032829285 0.76875901222229 -0.5679979920387268 -0.6706860065460205 0.7417129874229431 0.0064500002190470695
          -0.8758289813995361 -0.00545400008559227 0.482589989900589 -0.3777100145816803 -0.43147701025009155 -0.8192449808120728
          0.13899800181388855 0.4620859920978546 -0.8758739829063416 -0.3141990005970001 -0.45407000184059143 -0.8337270021438599
          -0.5101510286331177 -0.7933880090713501 -0.3320870101451874 -0.0894559994339943 -0.2815850079059601 0.955357015132904
          0.4593679904937744 0.7528499960899353 0.47137799859046936 -0.1909170001745224 -0.9804829955101013 0.046936001628637314
          0.5054420232772827 0.43846601247787476 -0.7431520223617554 -0.5241039991378784 0.8180570006370544 0.23685100674629211
          -0.8014029860496521 -0.07182499766349792 0.5937960147857666 0.18846499919891357 0.42060598731040955 -0.8874520063400269
          0.3437179923057556 0.2665480077266693 -0.9004499912261963 -0.256397008895874 -0.46408700942993164 -0.8478699922561646
          -0.3913939893245697 -0.9124280214309692 -0.11952300369739532 -0.1343650072813034 -0.30822399258613586 0.9417769908905029
          0.378601998090744 0.7867389917373657 0.48754701018333435 -0.3587439954280853 -0.6216840147972107 0.6962839961051941
          0.9538130164146423 0.2706019878387451 -0.1304440051317215 0.09138800203800201 0.9281200170516968 0.3608889877796173
          -0.36745598912239075 0.3824160099029541 0.8477820158004761 0.3919900059700012 -0.3478649854660034 -0.8516650199890137
          0.944238007068634 0.3134399950504303 0.10085099935531616 -0.0826679989695549 -0.6479129791259766 -0.7572150230407715
          0.32847800850868225 -0.9331309795379639 -0.14618200063705444 0.3147270083427429 -0.14485499262809753 0.9380639791488647
          -0.17376799881458282 -0.7769179940223694 0.6051480174064636 0.8377190232276917 -0.5444759726524353 0.042114999145269394