<?xml version="1.0"?>
<VTKFile type="PolyData" version="0.1" byte_order="LittleEndian" header_type="UInt32" compressor="vtkZLibDataCompressor">
  <PolyData>
    <Piece NumberOfPoints="770" NumberOfVerts="0" NumberOfLines="0" NumberOfStrips="0" NumberOfPolys="1541">
      <PointData Normals="Normals">
        <DataArray type="Float32" Name="Normals" NumberOfComponents="3" format="ascii" RangeMin="0.9999993144922183" RangeMax="1.0000007686599495">
          0.18778400123119354 -0.9598249793052673 0.20850299298763275 0.4540799856185913 -0.601593017578125 0.6571879982948303
          -0.705295979976654 -0.28957900404930115 0.6470710039138794 0.5418670177459717 -0.7053070068359375 -0.45708099007606506
          0.8443170189857483 -0.5271130204200745 -0.09633299708366394 -0.8700760006904602 -0.4163379967212677 0.2638759911060333
          -0.5395320057868958 -0.6710739731788635 -0.5084930062294006 0.9572070240974426 -0.28925400972366333 0.009266999550163746
          0.46438300609588623 -0.46967700123786926 0.7508339881896973 -0.532496988773346 -0.23058800399303436 0.8144180178642273
          -0.9443449974060059 0.022324999794363976 0.32819899916648865 -0.911641001701355 0.01359499990940094 0.4107620120048523
          0.3549869954586029 -0.5321159958839417 -0.7686600089073181 0.9247850179672241 -0.341033011674881 -0.1687290072441101
          -0.9946280121803284 -0.029447000473737717 0.09923399984836578 -0.9217979907989502 -0.2297080010175705 -0.31228598952293396
          -0.7435659766197205 -0.25989699363708496 -0.616087019443512 0.9603080153465271 -0.27596399188041687 -0.040654998272657394
          0.8774849772453308 -0.42555299401283264 0.22119000554084778 0.2208079993724823 -0.5559920072555542 0.8013219833374023
          -0.5298449993133545 -0.26676198840141296 0.8050479888916016 -0.9036210179328918 0.14817999303340912 0.4018850028514862
          -0.9722849726676941 0.17792099714279175 0.1516759991645813 -0.965146005153656 0.23091399669647217 0.12317399680614471
          -0.9041240215301514 0.4254339933395386 0.0395749993622303 0.49451300501823425 -0.3610830008983612 -0.7906169891357422
          0.8974469900131226 -0.2421489953994751 -0.3687190115451813 0.9509249925613403 -0.20751899480819702 -0.22951699793338776
          -0.9931520223617554 0.11462599784135818 0.022577999159693718 -0.9508860111236572 0.3080799877643585 -0.030030999332666397
          -0.7768239974975586 -0.12317000329494476 -0.6175540089607239 0.9558979868888855 -0.28324899077415466 -0.07764600217342377
          0.9132490158081055 -0.407370001077652 -0.005156999919563532 0.5268719792366028 -0.6124140024185181 0.5893679857254028
          0.1459439992904663 -0.672228991985321 0.725816011428833 -0.3099679946899414 -0.3732070028781891 0.8744350075721741
          -0.7965850234031677 0.28514400124549866 0.5330520272254944 -0.7831090092658997 0.6088449954986572 0.12668399512767792
          -0.9002959728240967 0.4329249858856201 -0.04520599916577339 -0.8899840116500854 0.44655001163482666 -0.09231700003147125
          -0.8042200207710266 0.5825700163841248 -0.11765400320291519 -0.6923990249633789 0.7179819941520691 -0.07131999731063843
          0.9514020085334778 -0.15058599412441254 -0.2686209976673126 0.4499039947986603 -0.30193600058555603 -0.8404880166053772
          -0.898177981376648 0.43911200761795044 0.02137400023639202 -0.9515150189399719 0.2889319956302643 0.10553800314664841
          -0.9223480224609375 0.04143499955534935 -0.3841310143470764 0.9619969725608826 -0.20092399418354034 -0.18490900099277496
          0.9306179881095886 -0.3363009989261627 -0.14440099895000458 0.8197720050811768 -0.5496010184288025 0.16097599267959595
          0.3811500072479248 -0.7345700263977051 0.5613660216331482 0.17952600121498108 -0.7397459745407104 0.6484950184822083
          -0.24529799818992615 -0.34063100814819336 0.9076340198516846 -0.6383939981460571 0.2842150032520294 0.7153149843215942
          -0.6886330246925354 0.6740139722824097 0.26737499237060547 -0.5824710130691528 0.8113669753074646 -0.04910999909043312
          -0.858705997467041 0.5013260245323181 -0.10628499835729599 -0.8142790198326111 0.5789740085601807 -0.04170599952340126
          -0.7148470282554626 0.6972990036010742 0.052622001618146896 -0.6075620055198669 0.7917450070381165 0.06330399960279465
          0.9496200084686279 -0.144896999001503 -0.2778970003128052 0.31722500920295715 -0.2223690003156662 -0.9219110012054443
          -0.9459180235862732 0.25123101472854614 0.2052370011806488 -0.9352920055389404 0.3123379945755005 0.1663530021905899
          -0.9512209892272949 0.20781800150871277 0.22801299393177032 -0.9898139834403992 0.1403460055589676 0.023914000019431114
          -0.93476802110672 0.1520719975233078 -0.3210670053958893 0.9550809860229492 -0.15818600356578827 -0.25059598684310913
          0.9353539943695068 -0.2508000135421753 -0.24942399561405182 0.8782659769058228 -0.4609769880771637 -0.12707799673080444
          0.5680090188980103 -0.7198789715766907 0.39892300963401794 0.4970009922981262 -0.820779025554657 0.2816239893436432
          0.20095999538898468 -0.795009970664978 0.5723410248756409 -0.21052800118923187 -0.31578800082206726 0.9251790046691895
          -0.4842739999294281 0.1861640065908432 0.8548809885978699 -0.6319310069084167 0.6797059774398804 0.3723750114440918
          -0.5269550085067749 0.8498860001564026 -0.0035149999894201756 -0.589260995388031 0.8049560189247131 0.06940100342035294
          -0.8854550123214722 0.40803200006484985 0.22244100272655487 -0.7918189764022827 0.4969649910926819 0.3550339937210083
          -0.6868199706077576 0.5417940020561218 0.4844970107078552 -0.6662260293960571 0.551701009273529 0.5017669796943665
          0.9387350082397461 -0.2256229966878891 -0.2605220079421997 0.25913700461387634 -0.0919710025191307 -0.9614520072937012
          -0.9356390237808228 0.22801999747753143 0.26941999793052673 -0.9142289757728577 0.2696180045604706 0.3024750053882599
          -0.8640639781951904 0.33117300271987915 0.3791010081768036 -0.9513390064239502 0.22223100066184998 0.21346400678157806
          -0.9254530072212219 0.2962929904460907 0.23611000180244446 -0.9241629838943481 0.27190500497817993 -0.268312007188797
          0.9430149793624878 -0.24425800144672394 -0.22596700489521027 0.9342389702796936 -0.18259699642658234 -0.30636000633239746
          0.8813949823379517 -0.30280399322509766 -0.36256301403045654 0.7437059879302979 -0.668042004108429 0.02493700012564659
          0.5289360284805298 -0.7791979908943176 0.33626899123191833 0.5179589986801147 -0.8518450260162354 0.07796800136566162
          0.1559779942035675 -0.8363999724388123 0.5254579782485962 -0.2850410044193268 -0.2889379858970642 0.9139289855957031
          -0.5185340046882629 0.1738239973783493 0.8372020125389099 -0.605584979057312 0.7222520112991333 0.33409398794174194
          -0.5268930196762085 0.8475689888000488 -0.06333000212907791 -0.5877820253372192 0.796766996383667 0.1402669996023178
          -0.6616179943084717 0.5402809977531433 0.5199599862098694 -0.7928339838981628 0.3812290132045746 0.4754759967327118
          -0.6883400082588196 0.3772610127925873 0.619566023349762 -0.6114479899406433 0.35405799746513367 0.7076539993286133
          -0.6360530257225037 0.3746899962425232 0.6745700240135193 0.9101489782333374 -0.2719379961490631 -0.3125370144844055
          0.4678870141506195 -0.02985299937427044 -0.8832839727401733 -0.8961079716682434 0.3546929955482483 0.2668040096759796
          -0.868943989276886 0.38685399293899536 0.30867698788642883 -0.8169710040092468 0.4203239977359772 0.39482301473617554
          -0.7769380211830139 0.43140000104904175 0.45854300260543823 -0.8459330201148987 0.2991349995136261 0.4414930045604706
          -0.9354349970817566 0.27482500672340393 0.22233499586582184 -0.8791360259056091 0.24788400530815125 0.40702998638153076
          -0.937250018119812 0.271342009305954 0.2189439982175827 -0.9412660002708435 0.2883029878139496 -0.1757809966802597
          0.8946639895439148 -0.353738009929657 -0.2728469967842102 0.9259459972381592 -0.26655998826026917 -0.26752498745918274
          0.8771209716796875 -0.19372999668121338 -0.4394629895687103 0.7709140181541443 -0.3646770119667053 -0.5222089886665344
          0.667822003364563 -0.7409579753875732 -0.07067599892616272 0.44273000955581665 -0.860817015171051 0.25096601247787476
          0.5064240097999573 -0.8622339963912964 0.009296000003814697 0.11874300241470337 -0.8691700100898743 0.48004600405693054
          -0.42013001441955566 -0.2868489921092987 0.8609349727630615 -0.539222002029419 0.12577900290489197 0.832718014717102
          -0.5939970016479492 0.6998770236968994 0.39666101336479187 -0.5239019989967346 0.8509870171546936 -0.03670400008559227
          -0.6117690205574036 0.7834050059318542 0.10961499810218811 -0.6751620173454285 0.564740002155304 0.47457900643348694
          -0.6472259759902954 0.3783870041370392 0.6617559790611267 -0.7182000279426575 0.41609498858451843 0.5577219724655151
          -0.663428008556366 0.3479140102863312 0.6624339818954468 -0.6491259932518005 0.2796170115470886 0.7074249982833862
          -0.6743720173835754 0.23201000690460205 0.7009950280189514 0.837897002696991 -0.26981601119041443 -0.47447699308395386
          -0.9023159742355347 0.2767220139503479 -0.3305320143699646 0.1464570015668869 0.09872400015592575 -0.9842780232429504
          -0.8541210293769836 0.3190549910068512 0.4107089936733246 -0.8505560159683228 0.2634260058403015 0.45514899492263794
          -0.8684729933738708 0.20153699815273285 0.4529210031032562 -0.8793249726295471 0.18093900382518768 0.44050899147987366
          -0.7715460062026978 -0.04583999887108803 0.6345199942588806 -0.8371930122375488 -0.16363699734210968 0.5218530297279358
          -0.8391979932785034 0.06628599762916565 0.5397710204124451 0.8455529808998108 -0.3458299934864044 -0.40674498677253723
          0.859624981880188 -0.40626999735832214 -0.3098219931125641 0.8647090196609497 -0.32902899384498596 -0.3794969916343689
          0.7220289707183838 -0.23950299620628357 -0.6490859985351562 0.6287009716033936 -0.3606410026550293 -0.6889650225639343
          0.5754479765892029 -0.8002849817276001 -0.16853299736976624 0.37227898836135864 -0.8932039737701416 0.2521800100803375
          0.5076979994773865 -0.861329972743988 -0.01881599985063076 -0.38810300827026367 -0.34660398960113525 0.8539569973945618
          0.17907799780368805 -0.9146739840507507 0.3623580038547516 -0.5309609770774841 0.07241799682378769 0.8442959785461426
          -0.5786409974098206 0.641480028629303 0.5036649703979492 -0.5496379733085632 0.8336549997329712 0.05402100086212158
          -0.645281970500946 0.753620982170105 0.1251640021800995 -0.7118330001831055 0.5600100159645081 0.42388999462127686
          -0.6729699969291687 0.40523600578308105 0.61878502368927 -0.6932730078697205 0.1871359944343567 0.6959540247917175
          -0.8628739714622498 0.19491200149059296 0.46632400155067444 -0.8546109795570374 0.1650180071592331 0.4923500120639801
          -0.8296449780464172 0.028641000390052795 0.5575559735298157 -0.8253120183944702 -0.05361900106072426 0.5621259808540344
          0.7730810046195984 -0.35366401076316833 -0.5265610218048096 -0.8233230113983154 -0.11512099951505661 0.5557760000228882
          -0.9615640044212341 0.2700519859790802 -0.04966900125145912 -0.7644519805908203 0.3955709934234619 -0.5090540051460266
          0.05433399975299835 0.18569399416446686 -0.9811040163040161 -0.8057839870452881 -0.36033299565315247 0.4699710011482239
          -0.7749900221824646 -0.45353999733924866 0.44010600447654724 -0.8579210042953491 -0.36683499813079834 0.35972699522972107
          -0.9065729975700378 -0.23756299912929535 0.34883901476860046 -0.6971740126609802 -0.43077901005744934 0.5730429887771606
          -0.5354120135307312 -0.7459849715232849 0.3960300087928772 -0.34442898631095886 -0.9021300077438354 0.25986701250076294
          0.7619550228118896 -0.43884900212287903 -0.4762740135192871 0.8266760110855103 -0.40170300006866455 -0.39400801062583923
          0.811926007270813 -0.43900999426841736 -0.38476699590682983 0.7571820020675659 -0.35183000564575195 -0.5503550171852112
          0.5794190168380737 -0.16409799456596375 -0.7983390092849731 0.5839530229568481 -0.3002830147743225 -0.7542080283164978
          0.5875970125198364 -0.7923189997673035 -0.16419300436973572 0.42600899934768677 -0.8654019832611084 0.26381200551986694
          0.5544300079345703 -0.8307890295982361 -0.04896000027656555 -0.4742409884929657 -0.3382369875907898 0.8128290176391602
          -0.5526790022850037 0.12804999947547913 0.823498010635376 0.11309000104665756 -0.9268800020217896 0.357915997505188
          -0.5502409934997559 0.6246110200881958 0.5541629791259766 -0.5435519814491272 0.7967860102653503 0.26397600769996643
          -0.6775060296058655 0.7154809832572937 0.17050699889659882 -0.7695369720458984 0.5363619923591614 0.34659698605537415
          -0.772750973701477 0.4322449862957001 0.4647800028324127 -0.757597029209137 0.21028299629688263 0.6179220080375671
          -0.7358199954032898 -0.15468400716781616 0.6592730283737183 -0.9483159780502319 -0.11380700021982193 0.2962160110473633
          -0.9539620280265808 -0.11852200329303741 0.275518000125885 -0.8865609765052795 -0.25541698932647705 0.3857100009918213
          -0.7302110195159912 -0.34291601181030273 0.5909320116043091 0.6527780294418335 -0.48702898621559143 -0.5802450180053711
          -0.7308520078659058 -0.5918340086936951 0.3399829864501953 -0.9251449704170227 -0.16665400564670563 0.3410769999027252
          -0.8379700183868408 0.5450490117073059 0.026991000398993492 -0.7368530035018921 0.6241229772567749 -0.25984200835227966
          -0.7261530160903931 0.6612129807472229 -0.18841400742530823 -0.691523015499115 0.6465499997138977 -0.3221319913864136
          -0.762050986289978 0.6401309967041016 0.09752099961042404 -0.6940720081329346 0.6960790157318115 -0.18367800116539001
          0.37281298637390137 0.04498400166630745 -0.9268159866333008 -0.24805499613285065 -0.929286003112793 0.2736699879169464
          -0.4380500018596649 -0.8286790251731873 0.34842899441719055 -0.7394009828567505 -0.5784350037574768 0.344527006149292
          -0.8778859972953796 -0.3695890009403229 0.3044990003108978 -0.4654270112514496 -0.8788769841194153 0.10465399920940399
          -0.20476600527763367 -0.9728350043296814 0.10799100250005722 -0.19830000400543213 -0.9313899874687195 0.3052699863910675
          0.5953649878501892 -0.6239749789237976 -0.5061579942703247 0.7380769848823547 -0.48941200971603394 -0.4644550085067749
          0.8051429986953735 -0.4373430013656616 -0.4005950093269348 0.7767580151557922 -0.4361650049686432 -0.4543200135231018
          0.6615219712257385 -0.2679870128631592 -0.7004079818725586 0.5299010276794434 -0.08597700297832489 -0.8436899781227112
          0.574118971824646 -0.2996770143508911 -0.7619590163230896 0.6081820130348206 -0.7671759724617004 -0.2038549929857254
          0.41795599460601807 -0.8886560201644897 0.18869000673294067 0.43029600381851196 -0.8881000280380249 -0.16163299977779388
          -0.4614950120449066 -0.3370969891548157 0.8206019997596741 -0.6052860021591187 0.08601299673318863 0.7913470268249512
          -0.6420069932937622 0.6214110255241394 0.44908198714256287 0.04352400079369545 -0.9743850231170654 0.22063399851322174
          -0.6147869825363159 0.7341520190238953 0.28819701075553894 -0.7270429730415344 0.6237210035324097 0.2870210111141205
          -0.8016470074653625 0.4748150110244751 0.36319699883461 -0.8195670247077942 0.39729800820350647 0.41287198662757874
          -0.8342530131340027 0.31949299573898315 0.44938400387763977 -0.7925789952278137 0.08267900347709656 0.6041380167007446
          -0.6402000188827515 -0.24671399593353271 0.7275140285491943 -0.9602370262145996 -0.19430500268936157 0.20047299563884735
          -0.9173979759216309 -0.2722780108451843 0.2902520000934601 -0.6706560254096985 -0.4999909996986389 0.5479329824447632
          -0.578980028629303 -0.4589659869670868 0.6738929748535156 0.56809401512146 -0.41528499126434326 -0.7104979753494263
          -0.9746599793434143 -0.12451700121164322 0.1858299970626831 -0.6618729829788208 -0.749468982219696 0.01484999991953373
          -0.5451080203056335 0.8370599746704102 0.04677199944853783 -0.6162980198860168 0.7865390181541443 0.03917299956083298
          -0.5592569708824158 0.8163290023803711 0.14435799419879913 -0.5860490202903748 0.717697024345398 0.37610799074172974
          -0.6269369721412659 0.5637120008468628 0.5377539992332458 -0.673799991607666 0.44613000750541687 0.5890340209007263
          -0.5652490258216858 0.7888240218162537 -0.24135200679302216 0.4023529887199402 0.04465600103139877 -0.9143949747085571
          -0.2958190143108368 -0.7942969799041748 0.5306439995765686 -0.6052039861679077 -0.5986620187759399 0.5247210264205933
          -0.7812359929084778 -0.4702959954738617 0.41047799587249756 -0.9204009771347046 -0.23694899678230286 0.3109929859638214
          -0.8881869912147522 -0.45607098937034607 0.05588399991393089 -0.8318700194358826 -0.3914259970188141 0.39341700077056885
          -0.7511450052261353 -0.14996400475502014 0.6428790092468262 0.4620639979839325 -0.5725539922714233 -0.6772580146789551
          0.4694100022315979 -0.6965939998626709 -0.5425959825515747 0.6931120157241821 -0.544730007648468 -0.47208601236343384
          0.7619590163230896 -0.4652639925479889 -0.4504980146884918 0.7090359926223755 -0.41002199053764343 -0.5737149715423584
          0.5945559740066528 -0.2460319995880127 -0.765487015247345 0.4819819927215576 -0.0804079994559288 -0.872484028339386
          0.5102859735488892 -0.2583580017089844 -0.8202800154685974 0.578266978263855 -0.760545015335083 -0.2952579855918884
          0.36664700508117676 -0.9285910129547119 0.05734900012612343 0.3906710147857666 -0.8786460161209106 -0.27451300621032715
          -0.4429369866847992 -0.33680999279022217 0.8308830261230469 -0.6939200162887573 0.11233799904584885 0.711234986782074
          -0.7552859783172607 0.5434550046920776 0.3663330078125 -0.7325819730758667 0.6628620028495789 0.1547199934720993
          0.23896199464797974 -0.9284060001373291 0.2845340073108673 -0.778249979019165 0.566694974899292 0.2705259919166565
          -0.798658013343811 0.4844590127468109 0.35699400305747986 -0.7839300036430359 0.4720590114593506 0.4032529890537262
          -0.7751889824867249 0.3165830075740814 0.5466790199279785 -0.793749988079071 0.21719099581241608 0.5681449770927429
          -0.7720609903335571 -0.03141900151968002 0.634772002696991 -0.6942440271377563 -0.32537999749183655 0.6419910192489624
          -0.9236429929733276 -0.18125799298286438 0.33768001198768616 -0.6629949808120728 -0.4447900056838989 0.6021620035171509
          -0.47269999980926514 -0.5524730086326599 0.6865329742431641 -0.6097450256347656 -0.45267099142074585 0.6506140232086182
          0.5756620168685913 -0.28344398736953735 -0.7669900059700012 -0.967179000377655 0.23204000294208527 0.10354799777269363
          -0.844897985458374 0.5293899774551392 -0.0767659991979599 -0.41791000962257385 0.9070510268211365 0.051089998334646225
          -0.5177760124206543 0.8548229932785034 -0.03443000093102455 -0.3755970001220703 0.9111419916152954 0.16954800486564636
          -0.45416098833084106 0.814486026763916 0.36104100942611694 -0.5876830220222473 0.6741629838943481 0.4473629891872406
          -0.516323983669281 0.5702940225601196 0.6388859748840332 -0.5931180119514465 0.4096989929676056 0.6930779814720154
          -0.6449810266494751 0.5631510019302368 0.5165860056877136 -0.589792013168335 0.8075500130653381 0.002951999893411994
          0.201664999127388 0.7232149839401245 -0.660522997379303 -0.8133180141448975 0.15758900344371796 0.5600720047950745
          -0.8425359725952148 -0.11955299973487854 0.5252050161361694 -0.8745740056037903 -0.2582789957523346 0.4103809893131256
          -0.898963987827301 -0.16882699728012085 0.40417999029159546 -0.7985039949417114 0.5894870162010193 0.12204699963331223
          -0.6874150037765503 0.6966840028762817 0.20516599714756012 -0.4419569969177246 0.8955000042915344 0.052476998418569565
          0.6095110177993774 -0.32241499423980713 -0.7242540121078491 0.3796299993991852 -0.6668639779090881 -0.6412280201911926
          0.4083530008792877 -0.7493839859962463 -0.5212209820747375 0.6477259993553162 -0.5820670127868652 -0.49157801270484924
          0.6808310151100159 -0.4812279939651489 -0.5521669983863831 0.6409810185432434 -0.3913489878177643 -0.6602950096130371
          0.5563120245933533 -0.2299560010433197 -0.7985219955444336 0.4590179920196533 -0.0588189996778965 -0.8864780068397522
          0.5428720116615295 -0.23547199368476868 -0.8061280250549316 0.5768920183181763 -0.766776978969574 -0.28151199221611023
          0.4136599898338318 -0.902209997177124 -0.12207899987697601 0.43824300169944763 -0.8454899787902832 -0.3051060140132904
          -0.24926699697971344 -0.5069640278816223 0.8251379728317261 -0.7153599858283997 0.005543000064790249 0.6987339854240417
          -0.8281139731407166 0.4281170070171356 0.361860990524292 -0.785614013671875 0.6130120158195496 0.08383099734783173
          -0.7937840223312378 0.6027820110321045 0.08099900186061859 0.1520320028066635 -0.9316920042037964 0.3299030065536499
          0.30384600162506104 -0.9254689812660217 -0.2262430042028427 -0.8209580183029175 0.5245040059089661 0.2256609946489334
          -0.8028600215911865 0.5444200038909912 0.24294400215148926 -0.8408430218696594 0.4066779911518097 0.3572070002555847
          -0.8599799871444702 0.13474799692630768 0.4922170042991638 -0.8660290241241455 0.08334100246429443 0.49299898743629456
          -0.8466519713401794 -0.10026399791240692 0.5226150155067444 -0.7737910151481628 -0.16995200514793396 0.6102160215377808
          -0.6474519968032837 -0.3925569951534271 0.6532260179519653 -0.29018500447273254 -0.42017000913619995 0.8597959876060486
          -0.3164620101451874 -0.17038099467754364 0.9331790208816528 -0.5810229778289795 -0.011394999921321869 0.8138070106506348
          0.6944029927253723 0.56010901927948 -0.45175498723983765 -0.3622089922428131 0.892973005771637 -0.2672159969806671
          -0.35555198788642883 0.9151719808578491 -0.18984800577163696 -0.16937999427318573 0.9851700067520142 -0.02738500013947487
          0.12270700186491013 0.9566329717636108 -0.2641890048980713 -0.1149900034070015 0.978085994720459 0.173567995429039
          -0.2887740135192871 0.8657600283622742 0.40874001383781433 -0.40360599756240845 0.7156739830970764 0.5700110197067261
          -0.5432819724082947 0.3026599884033203 0.7830979824066162 -0.46419599652290344 0.4733009934425354 0.7486709952354431
          -0.6047359704971313 0.3292270004749298 0.7251920104026794 -0.2891159951686859 0.6443219780921936 0.7079979777336121
          -0.18283900618553162 0.9794830083847046 0.08475799858570099 -0.5950070023536682 0.7458230257034302 0.2995249927043915
          -0.8693779706954956 0.33875301480293274 0.3597620129585266 -0.8973510265350342 -0.21023400127887726 0.3880229890346527
          -0.749468982219696 -0.39805901050567627 0.5290039777755737 -0.325203001499176 0.9446939826011658 -0.042378999292850494
          0.05757499858736992 0.9632130265235901 -0.26249998807907104 0.1553640067577362 0.9801899790763855 -0.12283500283956528
          0.9047020077705383 0.42593100666999817 0.009827000088989735 0.6378520131111145 -0.3874010145664215 -0.6656320095062256
          0.37067800760269165 -0.7454320192337036 -0.5540120005607605 0.4040699899196625 -0.7573950290679932 -0.5129129886627197
          0.6178640127182007 -0.574088990688324 -0.5372769832611084 0.6504930257797241 -0.4502579867839813 -0.611657977104187
          0.6000769734382629 -0.36401501297950745 -0.7123209834098816 0.5174270272254944 -0.20364299416542053 -0.8311430215835571
          0.44839200377464294 -0.04548100009560585 -0.89267897605896 0.5709580183029175 -0.3257400095462799 -0.7535920143127441
          0.4721919894218445 -0.8404889702796936 -0.26572999358177185 -0.33288800716400146 -0.677386999130249 0.6559969782829285
          -0.6232219934463501 -0.22802899777889252 0.748062014579773 -0.8299149870872498 0.29690301418304443 0.4723230004310608
          -0.7990639805793762 0.5482029914855957 0.24692200124263763 -0.8511499762535095 0.5147960186004639 0.10261200368404388
          -0.8539810180664062 0.5202199816703796 0.009344000369310379 0.10407199710607529 -0.9937859773635864 -0.03948400169610977
          -0.11919999867677689 -0.944346010684967 0.3065980076789856 0.1551560014486313 -0.9548310041427612 -0.2534259855747223
          -0.8423389792442322 0.5379760265350342 0.032368000596761703 -0.9079110026359558 0.409074991941452 0.0914049968123436
          -0.9509890079498291 0.22284699976444244 0.21438300609588623 -0.9462100267410278 0.13530400395393372 0.29390498995780945
          -0.9269869923591614 0.23117299377918243 0.29538899660110474 -0.8699399828910828 0.3012380003929138 0.3904620110988617
          -0.6921070218086243 0.5244809985160828 0.4958910048007965 0.12211199849843979 -0.5408350229263306 0.8322169780731201
          0.4219760000705719 0.4977250099182129 0.7577639818191528 0.0769829973578453 0.7573959827423096 0.6484019756317139
          -0.3027789890766144 0.8202019929885864 0.48537999391555786 0.32734501361846924 0.8296470046043396 -0.45225200057029724
          0.3717139959335327 0.8417009711265564 -0.39162299036979675 0.2655029892921448 0.9632390141487122 -0.04096800088882446
          0.5978800058364868 0.7639849781990051 -0.24262399971485138 0.18518799543380737 0.9553400278091431 0.2302830070257187
          -0.1732420027256012 0.8209630250930786 0.544064998626709 -0.38016700744628906 0.6351590156555176 0.6723440289497375
          -0.14774100482463837 0.5082510113716125 0.848442018032074 -0.054354000836610794 0.4155440032482147 0.9079470038414001
          0.05929899960756302 0.5645260214805603 0.82328200340271 0.4162769913673401 0.7661899924278259 -0.48955801129341125
          -0.8879910111427307 -0.15099899470806122 0.4343630075454712 -0.6530029773712158 0.6619830131530762 0.36792099475860596
          0.1432660073041916 0.9078919887542725 -0.3939630091190338 -0.6454129815101624 -0.5248169898986816 0.5549860000610352
          0.497404009103775 0.7522910237312317 -0.4320259988307953 0.6424720287322998 0.6879940032958984 -0.3374829888343811
          0.7533000111579895 0.41740599274635315 -0.508243978023529 0.9606090188026428 0.26956701278686523 0.06755799800157547
          0.5479109883308411 -0.44557100534439087 -0.7079979777336121 0.2437949925661087 -0.7734479904174805 -0.585099995136261
          0.3416700065135956 -0.7681059837341309 -0.541549026966095 0.5647280216217041 -0.5746849775314331 -0.5922999978065491
          0.609220027923584 -0.43136900663375854 -0.6654109954833984 0.5264779925346375 -0.33577001094818115 -0.7810760140419006
          0.4471819996833801 -0.2077690064907074 -0.8699769973754883 0.43688100576400757 -0.13458499312400818 -0.8893939852714539
          0.5044270157814026 -0.6007310152053833 -0.6202219724655151 -0.3208400011062622 -0.8112419843673706 0.4888229966163635
          -0.5715429782867432 -0.25627198815345764 0.779528021812439 -0.357340008020401 -0.5702540278434753 0.7396739721298218
          -0.7852910161018372 0.24355700612068176 0.569208025932312 -0.8166199922561646 0.4158659875392914 0.40023499727249146
          -0.736070990562439 0.5966010093688965 0.3197909891605377 -0.0045739999040961266 -0.9806749820709229 -0.195592999458313
          -0.2574790120124817 -0.9607970118522644 0.10282599925994873 0.1900389939546585 -0.8343750238418579 -0.5174009799957275
          -0.7304850220680237 0.6077830195426941 0.3114350140094757 -0.7710009813308716 0.5646669864654541 0.29446399211883545
          -0.7279289960861206 0.6066009998321533 0.3196159899234772 -0.6762279868125916 0.6405540108680725 0.36387699842453003
          -0.6394619941711426 0.7082099914550781 0.2992120087146759 -0.5139129757881165 0.8139529824256897 0.2708759903907776
          -0.5747920274734497 0.8071569800376892 0.13458000123500824 0.7224479913711548 0.5601099729537964 0.4053960144519806
          0.7350090146064758 -0.6192079782485962 0.2763040065765381 0.054669998586177826 -0.7971230149269104 0.6013370156288147
          0.9819809794425964 -0.08280099928379059 0.16987499594688416 0.24028900265693665 0.9486590027809143 0.20568500459194183
          -0.05187800154089928 0.9790120124816895 0.19708900153636932 0.7352179884910583 0.5815370082855225 -0.3482379913330078
          0.7905589938163757 0.48124799132347107 -0.3787049949169159 0.44473201036453247 0.8934829831123352 0.062460001558065414
          0.5633339881896973 0.8198210000991821 -0.10270600020885468 0.02035900019109249 0.8949710130691528 0.44565901160240173
          -0.31461501121520996 0.7010740041732788 0.6399310231208801 0.07696299999952316 0.7305129766464233 0.6785479784011841
          0.979960024356842 0.1938920021057129 -0.04565199837088585 0.9602910280227661 0.172776997089386 -0.21906399726867676
          0.7343519926071167 0.29552900791168213 -0.6110560297966003 0.6986870169639587 0.22034700214862823 -0.6806489825248718
          0.7293940186500549 0.22119300067424774 -0.6473469734191895 -0.9394980072975159 -0.05017099902033806 0.33886200189590454
          -0.6899210214614868 0.6379489898681641 0.3420960009098053 0.23229500651359558 0.8924940228462219 -0.3866429924964905
          0.5642729997634888 0.017974000424146652 -0.8253920078277588 -0.6118720173835754 -0.688476026058197 0.38937699794769287
          0.7705770134925842 0.44642600417137146 -0.4548789858818054 0.7453190088272095 0.4788619875907898 -0.46388599276542664