<?xml version="1.0"?>
<VTKFile type="PolyData" version="0.1" byte_order="LittleEndian" header_type="UInt32" compressor="vtkZLibDataCompressor">
  <PolyData>
    <Piece NumberOfPoints="203" NumberOfVerts="0" NumberOfLines="0" NumberOfStrips="0" NumberOfPolys="398">
      <PointData Normals="Normals">
        <DataArray type="Float32" Name="Normals" NumberOfComponents="3" format="ascii" RangeMin="0.9999993706527441" RangeMax="1.0000006672041564">
          0.7181820273399353 0.590520977973938 -0.3681029975414276 0.702252984046936 0.21348099410533905 0.6791660189628601
          0.8138669729232788 -0.5287169814109802 -0.24099500477313995 0.7546520233154297 0.4365620017051697 -0.4898090064525604
          0.5136409997940063 0.8474479913711548 -0.13418099284172058 0.24018800258636475 0.8117039799690247 0.5323969721794128
          0.2999660074710846 -0.16408200562000275 0.9397330284118652 0.20690500736236572 -0.9164419770240784 0.34252500534057617
          0.5399739742279053 -0.8216339945793152 -0.1826079934835434 0.514286994934082 0.8051480054855347 -0.29537200927734375
          0.8743000030517578 0.3618980050086975 -0.3234640061855316 0.7917770147323608 -0.5592610239982605 -0.24559299647808075
          0.09839700162410736 0.9636539816856384 0.24837400019168854 -0.018936000764369965 0.25781598687171936 0.9660080075263977
          0.12210000306367874 -0.6832450032234192 0.7199079990386963 -0.0639209970831871 -0.9137769937515259 0.4011549949645996
          0.007062999997287989 -0.9994969964027405 0.030926000326871872 0.018688000738620758 -0.9973059892654419 0.07092899829149246
          0.10492999851703644 0.9919880032539368 0.07035599648952484 0.5902860164642334 0.7799739837646484 -0.2078540027141571
          0.9961069822311401 -0.08448199927806854 -0.025193000212311745 0.4880810081958771 -0.8679199814796448 0.09214899688959122
          0.06649400293827057 -0.9874989986419678 0.14291100203990936 -0.28039300441741943 0.6886969804763794 0.6686379909515381
          -0.3480969965457916 -0.34499698877334595 0.8716679811477661 -0.19216200709342957 -0.9780449867248535 -0.08063600212335587
          -0.4470610022544861 -0.8518440127372742 0.27294299006462097 -0.6461930274963379 -0.2548930048942566 0.7193499803543091
          -0.3817319869995117 -0.9195629954338074 0.09318699687719345 -0.4499399960041046 -0.8585129976272583 0.24598699808120728
          -0.5356069803237915 0.7699710130691528 0.34679800271987915 -0.5180240273475647 0.561864972114563 0.6449490189552307
          0.22728599607944489 0.971642017364502 -0.0652180016040802 0.6241880059242249 0.7694060206413269 -0.13565899431705475
          0.99406898021698 -0.03779599815607071 0.10197599977254868 0.41459301114082336 -0.8837569952011108 0.21699300408363342
          0.11837500333786011 -0.9684849977493286 0.2191449999809265 -0.2475070059299469 -0.9133260250091553 0.3233810067176819
          -0.7423750162124634 -0.6526439785957336 -0.1514420062303543 -0.7982980012893677 -0.5539349913597107 -0.23638300597667694
          -0.9767850041389465 -0.09719900041818619 0.19089999794960022 -0.8626949787139893 -0.5036619901657104 -0.04563400149345398
          -0.9326729774475098 -0.34171199798583984 0.11556199938058853 -0.5454699993133545 0.8349379897117615 -0.07308399677276611
          0.3201189935207367 0.9441699981689453 -0.07788799703121185 0.709168016910553 0.7036700248718262 0.04391799867153168
          0.9066230058670044 -0.035764001309871674 0.4204240143299103 0.13373300433158875 -0.913765013217926 0.38360100984573364
          0.0700249969959259 -0.9663140177726746 0.24765600264072418 -0.7306579947471619 -0.6739060282707214 -0.10949300229549408
          0.039480000734329224 -0.9562050104141235 0.29002198576927185 -0.96144700050354 0.18397200107574463 -0.20438699424266815
          -0.9359570145606995 0.11075299978256226 -0.33424198627471924 -0.9485629796981812 0.1900620013475418 -0.2531900107860565
          -0.8642730116844177 0.23894399404525757 -0.4426479935646057 -0.5343629717826843 0.8017929792404175 -0.2675530016422272
          0.34449100494384766 0.9379379749298096 -0.03998300060629845 0.7332720160484314 0.642857015132904 0.22146600484848022
          0.8574450016021729 0.16338500380516052 0.4879480004310608 0.41225698590278625 -0.7096109986305237 0.5713989734649658
          -0.25147101283073425 -0.9437369704246521 0.21476000547409058 -0.26638901233673096 -0.895205020904541 0.35727500915527344
          -0.3453969955444336 -0.916392982006073 -0.20229899883270264 -0.05826200172305107 -0.9812610149383545 0.18366500735282898
          -0.6984909772872925 0.08432900160551071 -0.7106329798698425 -0.5205379724502563 0.7643889784812927 -0.3804599940776825
          -0.4009090065956116 0.8073599934577942 -0.43294501304626465 -0.293040007352829 0.7982310056686401 -0.526265025138855
          0.3027549982070923 0.9414229989051819 -0.1485310047864914 0.7391800284385681 0.5647050142288208 0.36704400181770325
          0.7113379836082458 0.6493390202522278 0.26899299025535583 0.7862619757652283 0.4845130145549774 0.3834559917449951
          0.8513950109481812 0.03968600183725357 0.5230219960212708 0.591733992099762 -0.5202040076255798 0.6158239841461182
          -0.3251509964466095 -0.8874430060386658 0.3266820013523102 -0.27159199118614197 -0.9542419910430908 0.12514400482177734
          -0.4882560074329376 -0.8690450191497803 0.0797950029373169 -0.7047330141067505 0.14920100569725037 -0.693606972694397
          -0.5635560154914856 -0.765021026134491 -0.31168699264526367 -0.22586700320243835 0.7923169732093811 -0.5667600035667419
          0.3434930145740509 0.9326969981193542 -0.10994700342416763 0.39205101132392883 0.9163900017738342 -0.08077800273895264
          0.799875020980835 0.5012959837913513 0.3300049901008606 0.7846969962120056 0.49783700704574585 0.36933499574661255
          0.7139739990234375 0.6636840105056763 0.22307999432086945 0.8384850025177002 0.30021101236343384 0.4547710120677948
          0.689054012298584 -0.3709760010242462 0.6225600242614746 -0.2293960005044937 -0.9375280141830444 0.26156800985336304
          -0.6840479969978333 -0.721435010433197 -0.10774599760770798 -0.647707998752594 -0.6714230179786682 -0.3600899875164032
          -0.43752801418304443 -0.8991100192070007 -0.013081000186502934 -0.21532799303531647 0.7838659882545471 -0.582397997379303
          -0.7067040205001831 0.1369750052690506 -0.6941239833831787 0.4255560040473938 0.8939939737319946 -0.14027200639247894
          0.7170590162277222 0.6626179814338684 0.2162500023841858 0.8491259813308716 0.16069500148296356 0.5031520128250122
          -0.10781999677419662 -0.9432719945907593 0.31402701139450073 0.6360509991645813 -0.47797900438308716 0.6057850122451782
          -0.6423689723014832 -0.758525013923645 -0.10955599695444107 -0.7344369888305664 0.20586000382900238 -0.6467030048370361
          -0.7584360241889954 -0.5665609836578369 -0.3221549987792969 0.44384899735450745 0.8920450210571289 -0.08517400175333023
          -0.14590400457382202 0.8919990062713623 -0.42784398794174194 0.7125139832496643 0.6746249794960022 0.19288599491119385
          0.7045930027961731 -0.479995995759964 0.5226399898529053 0.900098979473114 0.25677600502967834 0.35197699069976807
          -0.6737449765205383 -0.7387760281562805 -0.016645999625325203 -0.11265400052070618 -0.9481639862060547 0.29714301228523254
          -0.8592140078544617 -0.4600209891796112 -0.22390200197696686 -0.8046309947967529 0.28248798847198486 -0.5222740173339844
          0.667726993560791 0.7234410047531128 0.17542099952697754 0.44147801399230957 0.8970860242843628 -0.018275000154972076
          -0.055305998772382736 0.953781008720398 -0.29537099599838257 -0.05650399997830391 -0.9507849812507629 0.3046570122241974
          0.7938439846038818 -0.4380519986152649 0.42180898785591125 0.8405640125274658 0.5170630216598511 0.16154800355434418
          0.8557270169258118 0.4707309901714325 0.21481099724769592 0.9387230277061462 0.1467290073633194 0.31188100576400757
          -0.9070590138435364 -0.38493800163269043 -0.1704919934272766 -0.6930490136146545 -0.7190160155296326 0.051961999386548996
          -0.8554980158805847 0.31818100810050964 -0.40851500630378723 -0.2057809978723526 0.9320080280303955 -0.29835599660873413
          0.5608170032501221 0.8267109990119934 0.0450889989733696 -0.6093630194664001 -0.7868599891662598 0.09761299937963486
          0.16137799620628357 -0.9283360242843628 0.33488699793815613 0.8304280042648315 -0.4454039931297302 0.3346709907054901
          0.960889995098114 0.07787899672985077 0.2657560110092163 0.858361005783081 0.47393599152565 0.19647300243377686
          0.5671929717063904 0.8194980025291443 0.08194900304079056 -0.8970609903335571 0.365339994430542 -0.24861299991607666
          -0.9309099912643433 -0.3605009913444519 -0.05869700014591217 -0.21058499813079834 0.9568219780921936 -0.20036299526691437
          -0.6912519931793213 -0.716139018535614 0.09651900082826614 -0.0025569999124854803 -0.9628869891166687 0.26989200711250305
          0.8177649974822998 -0.5225740075111389 0.2412009984254837 0.9853960275650024 0.021040000021457672 0.16897599399089813
          0.8106039762496948 0.5855590105056763 0.006504999939352274 0.4918400049209595 0.8704130053520203 0.021764000877738
          -0.9273639917373657 0.37084901332855225 -0.0496629998087883 -0.25612398982048035 0.9634259939193726 -0.0788009986281395
          -0.961251974105835 -0.2659820020198822 0.07244300097227097 -0.6721289753913879 -0.7203770279884338 0.17117300629615784
          0.12083999812602997 -0.9648979902267456 0.23317399621009827 0.8389480113983154 -0.5152729749679565 0.17509900033473969
          0.9954140186309814 0.02887200005352497 0.09119699895381927 0.5381690263748169 0.8166249990463257 -0.2085620015859604
          0.6793910264968872 0.7319769859313965 -0.05136900022625923 0.6022409796714783 0.7903209924697876 -0.1126910001039505
          0.9823480248451233 0.18454299867153168 0.030585000291466713 -0.21277500689029694 0.965848982334137 -0.14785799384117126
          -0.932852029800415 0.33507001399993896 0.1323470026254654 -0.9437320232391357 -0.27173298597335815 0.18849900364875793
          -0.6499760150909424 -0.7508599758148193 0.11721599847078323 0.25317299365997314 -0.9496449828147888 0.18459999561309814
          0.8695080280303955 -0.47358301281929016 0.14026400446891785 0.9908689856529236 0.13182899355888367 -0.02826800011098385
          0.797245979309082 0.6016839742660522 0.04873200133442879 -0.14743700623512268 0.9691640138626099 0.19744400680065155
          0.6189789772033691 0.7779750227928162 0.1077990010380745 0.9013469815254211 -0.4323579967021942 -0.025303000584244728
          -0.900331974029541 0.31511399149894714 0.3001739978790283 -0.8676249980926514 -0.390531986951828 0.3077529966831207
          -0.6210070252418518 -0.6729180216789246 0.4019089937210083 -0.4699999988079071 -0.8497790098190308 0.23869499564170837
          0.21632400155067444 -0.9750869870185852 0.049084000289440155 0.9308369755744934 -0.3137809932231903 -0.1873060017824173
          0.9739469885826111 0.09017500281333923 -0.20807699859142303 0.8660380244255066 0.4999789893627167 0.0005729999975301325
          -0.18144699931144714 0.9511539936065674 0.249767005443573 0.5629010200500488 0.8015959858894348 0.20146100223064423
          0.3865180015563965 -0.918910026550293 -0.07879199832677841 -0.8460869789123535 0.30636200308799744 0.4362100064754486
          -0.536978006362915 -0.6540039777755737 0.5328540205955505 -0.8645930290222168 -0.13879700005054474 0.4829219877719879
          -0.45054200291633606 -0.7084779739379883 0.5432040095329285 -0.1735129952430725 -0.9748589992523193 0.13979600369930267
          0.2840979993343353 -0.7289050221443176 -0.62288498878479 0.8243259787559509 -0.2035589963197708 -0.5282520055770874
          0.28802698850631714 -0.10129699856042862 -0.9522500038146973 0.9414510130882263 0.10745400190353394 -0.3195669949054718
          0.8169580101966858 0.5746939778327942 -0.04803000018000603 -0.3855060040950775 0.8404160141944885 0.3809010088443756
          0.5819990038871765 0.8112350106239319 0.056341998279094696 0.009177000261843204 0.9767730236053467 -0.21408100426197052
          -0.01280600018799305 -0.8017690181732178 -0.597495973110199 -0.8528969883918762 0.3309969902038574 0.4037410020828247
          -0.7639679908752441 -0.544638991355896 0.34600698947906494 -0.34543299674987793 -0.9263259768486023 0.15032100677490234
          -0.9076259732246399 0.01374599989503622 0.4195539951324463 -0.005679999943822622 0.0551300011575222 -0.998462975025177
          0.5205209851264954 0.33551299571990967 -0.7851679921150208 0.09418600052595139 -0.21892300248146057 -0.9711859822273254
          0.3473460078239441 0.6939759850502014 -0.6306729912757874 -0.6245920062065125 0.6973919868469238 -0.3514670133590698
          -0.10210999846458435 0.36117100715637207 -0.9268919825553894 -0.050526998937129974 -0.8064789772033691 -0.5891000032424927
          -0.9622870087623596 0.2310190051794052 -0.14364400506019592 -0.4259360134601593 -0.47892698645591736 -0.7675989866256714
          -0.022213999181985855 0.18066200613975525 -0.9832940101623535 0.12905099987983704 -0.2435940057039261 -0.9612529873847961
          0.5524970293045044 -0.6991599798202515 0.45378801226615906 0.5524970293045044 -0.6991599798202515 0.45378801226615906
          0.5524970293045044 -0.6991599798202515 0.45378801226615906
          <InformationKey name="L2_NORM_RANGE" location="vtkDataArray" length="2">
            <Value index="0">
              0.99999937065
            </Value>
            <Value index="1">
              1.0000006672
            </Value>
          </InformationKey>
        </DataArray>
      </PointData>
      <CellData>
      </CellData>
      <Points>
        <DataArray type="Float32" Name="Points" NumberOfComponents="3" format="ascii" RangeMin="0.024630410880407832" RangeMax="0.1521514385926642">
          -0.009135999716818333 0.026512999087572098 0.13821500539779663 -0.008182999677956104 0.025615999475121498 0.14553700387477875
          -0.007961999624967575 0.022564999759197235 0.1383100003004074 -0.011485000140964985 0.02433300018310547 0.13321399688720703
          -0.01190400030463934 0.02931799925863743 0.13956399261951447 -0.017635999247431755 0.030693000182509422 0.14579300582408905
          -0.013880999758839607 0.02676999941468239 0.14739200472831726 -0.012028999626636505 0.0220589991658926 0.14203700423240662
          -0.011746999807655811 0.022036999464035034 0.13224999606609344 -0.01564900018274784 0.029659999534487724 0.13467299938201904
          -0.013150000013411045 0.023353999480605125 0.12970100343227386 -0.013422000221908092 0.02149599976837635 0.12711100280284882
          -0.020089000463485718 0.03201499953866005 0.1427849978208542 -0.01861399970948696 0.027851000428199768 0.14841799437999725
          -0.01656699925661087 0.023288000375032425 0.1456650048494339 -0.019917000085115433 0.021988000720739365 0.14369900524616241
          -0.016100000590085983 0.021020999178290367 0.13317200541496277 -0.017997000366449356 0.020975999534130096 0.12815600633621216
          -0.023377999663352966 0.03284300118684769 0.13685700297355652 -0.017829999327659607 0.02909800037741661 0.12917999923229218
          -0.013345000334084034 0.02260199934244156 0.12460699677467346 -0.014911999925971031 0.021250000223517418 0.12169499695301056
          -0.018939999863505363 0.020394999533891678 0.12160100042819977 -0.02271999977529049 0.030154999345541 0.14649200439453125
          -0.022405000403523445 0.02487199939787388 0.14716799557209015 -0.022987000644207 0.022009000182151794 0.13405799865722656
          -0.02855299971997738 0.02148599922657013 0.14140799641609192 -0.02994699962437153 0.023267000913619995 0.14189499616622925
          -0.024018000811338425 0.02196599915623665 0.12869299948215485 -0.025505000725388527 0.02081100083887577 0.12187600135803223
          -0.03145400062203407 0.032329000532627106 0.13700799643993378 -0.02844499982893467 0.03127799928188324 0.14135900139808655
          -0.02520200051367283 0.03301199898123741 0.13027900457382202 -0.019638000056147575 0.028975000604987144 0.12368399649858475
          -0.01344900019466877 0.02206999994814396 0.12026999890804291 -0.014278000220656395 0.020684000104665756 0.1182750016450882
          -0.01881200075149536 0.019368000328540802 0.11713200062513351 -0.026906000450253487 0.01898300088942051 0.11440200358629227
          -0.03268799930810928 0.02376200072467327 0.13482899963855743 -0.03283499926328659 0.027226999402046204 0.12748600542545319
          -0.033987000584602356 0.026352999731898308 0.136230006814003 -0.029954999685287476 0.026367999613285065 0.12245900183916092
          -0.028714999556541443 0.0212629996240139 0.11420899629592896 -0.031947001814842224 0.032687000930309296 0.13011500239372253
          -0.02389100007712841 0.03184200078248978 0.123198002576828 -0.019065000116825104 0.02739899978041649 0.11731799691915512
          -0.012357999570667744 0.020208999514579773 0.11534199863672256 -0.014008999802172184 0.01968500018119812 0.1148580014705658
          -0.018603000789880753 0.01825599931180477 0.11217299848794937 -0.02810800075531006 0.016863999888300896 0.10882800072431564
          -0.023009000346064568 0.0174150001257658 0.11046499758958817 -0.03285599872469902 0.030643999576568604 0.12898899614810944
          -0.03085000067949295 0.02903899922966957 0.12237299978733063 -0.028981000185012817 0.026353999972343445 0.1138399988412857
          -0.02830200083553791 0.023807000368833542 0.10790900141000748 -0.030222000554203987 0.03175999969244003 0.12333399802446365
          -0.022763000801205635 0.0315760001540184 0.11671800166368484 -0.016457000747323036 0.026621999219059944 0.11196299642324448
          -0.01025800034403801 0.018673000857234 0.11002799868583679 -0.010247999802231789 0.01703600026667118 0.10900399833917618
          -0.014756999909877777 0.016719000414013863 0.10614100098609924 -0.012165999971330166 0.01600700058043003 0.10803499817848206
          -0.020464999601244926 0.015768000856041908 0.10162100195884705 -0.017155999317765236 0.016964999958872795 0.10436200350522995
          -0.02170100063085556 0.021386999636888504 0.10046300292015076 -0.02694999985396862 0.03038400039076805 0.11432400345802307
          -0.02493700012564659 0.028483999893069267 0.10878899693489075 -0.019120000302791595 0.0261400006711483 0.10067600011825562
          -0.019605999812483788 0.029280999675393105 0.10990999639034271 -0.011254999786615372 0.02156900055706501 0.10754899680614471
          -0.011869000270962715 0.024001000449061394 0.10599300265312195 -0.008945999667048454 0.019461000338196754 0.1075500026345253
          -0.0065460000187158585 0.016813000664114952 0.10402599722146988 -0.007081000134348869 0.014302999712526798 0.10382100194692612
          -0.009602000005543232 0.012749000452458858 0.10283499956130981 -0.01450200006365776 0.01510700024664402 0.09790699928998947
          -0.011459999717772007 0.014453000389039516 0.10039500147104263 -0.017163999378681183 0.01985899917781353 0.09559900313615799
          -0.016530999913811684 0.015192000195384026 0.09596700221300125 -0.014488999731838703 0.024821000173687935 0.0965690016746521
          -0.01425000000745058 0.026434000581502914 0.10282500088214874 -0.011266999877989292 0.024612000212073326 0.0982310026884079
          -0.006790999788790941 0.018188999965786934 0.10323300212621689 -0.007122000213712454 0.01905900053679943 0.10277199745178223
          -0.008206999860703945 0.02202799916267395 0.10078500211238861 -0.002517000073567033 0.014808000065386295 0.09810499846935272
          -0.0023270000237971544 0.013309000059962273 0.09734799712896347 -0.005828999914228916 0.008460000157356262 0.09594900161027908
          -0.00737100001424551 0.011682000011205673 0.0946120023727417 -0.011859999969601631 0.01398599985986948 0.09107399731874466
          -0.009686999954283237 0.013040999881923199 0.09266199916601181 -0.010174999944865704 0.022451000288128853 0.09205800294876099
          -0.012490999884903431 0.018650000914931297 0.09069599956274033 -0.0075980001129209995 0.022485999390482903 0.09356000274419785
          -0.004813000094145536 0.019992999732494354 0.09578199684619904 0.0020649998914450407 0.012338000349700451 0.09158899635076523
          -0.0011579999700188637 0.006810999941080809 0.09035500138998032 0.00203999993391335 0.010003999806940556 0.09119399636983871
          -0.0039519998244941235 0.01003899984061718 0.08774500340223312 -0.007449000142514706 0.015643000602722168 0.08461999893188477
          -0.007278000004589558 0.01255900040268898 0.08541599661111832 -0.0034660000819712877 0.01907699927687645 0.08737999945878983
          -0.005131999962031841 0.01944199949502945 0.08597099781036377 -0.00017899999511428177 0.016589999198913574 0.08995100110769272
          0.006388999987393618 0.006988000124692917 0.08395099639892578 0.0062779998406767845 0.010184000246226788 0.08469799906015396
          -0.00060299999313429 0.007147999946027994 0.0815889984369278 0.0024079999420791864 0.004310000222176313 0.08313599973917007
          -0.0036140000447630882 0.00954199954867363 0.07934000343084335 -0.0034179999493062496 0.013791999779641628 0.07815399765968323
          0.00430699996650219 0.01435299962759018 0.08337800204753876 0.0013020000187680125 0.016596000641584396 0.08167699724435806
          -0.0012809999752789736 0.017451999709010124 0.07924100011587143 0.005520000122487545 0.001896000001579523 0.0747779980301857
          0.010135999880731106 0.004468999803066254 0.07520800083875656 0.006874999962747097 0.01272599957883358 0.07920700311660767
          0.008112000301480293 0.010905000381171703 0.0753289982676506 0.009529000148177147 0.006765000056475401 0.07653100043535233
          -0.00041099998634308577 0.006905999965965748 0.07104600220918655 0.002971000038087368 0.0036100000143051147 0.073512002825737
          -0.00003300000025774352 0.01115300040692091 0.07066900283098221 0.003656999906525016 0.014953999780118465 0.0696839988231659
          0.006556000094860792 0.013814999721944332 0.07040899991989136 0.004019000101834536 0.0011879999656230211 0.06633400171995163
          0.008123000152409077 -0.0003699999942909926 0.06786099821329117 0.012544999830424786 0.0028019999153912067 0.06764599680900574
          0.012993999756872654 0.0055240001529455185 0.06779000163078308 0.01143800001591444 0.009793000295758247 0.06731700152158737
          0.008747000247240067 0.01309799961745739 0.06601700186729431 0.0021540001034736633 0.009386000223457813 0.06307300180196762
          0.002007999923080206 0.004044000059366226 0.06315399706363678 0.0059380000457167625 0.014155999757349491 0.06480000168085098
          0.004788000136613846 0.0005000000237487257 0.06218300014734268 0.009627999737858772 -0.0022879999596625566 0.06198100000619888
          0.013088000006973743 0.00021600000036414713 0.06065699830651283 0.014755000360310078 0.004253000020980835 0.05952199921011925
          0.013925000093877316 0.008767999708652496 0.05655200034379959 0.009908000007271767 0.012335999868810177 0.05624900013208389
          0.0031320000998675823 0.008488999679684639 0.05537499859929085 0.007282999809831381 0.013384000398218632 0.05585499852895737
          0.002589999930933118 0.0021699999924749136 0.05554400011897087 0.004856000188738108 -0.0015399999683722854 0.054760999977588654
          0.01001999992877245 -0.004004999995231628 0.05534899979829788 0.014174999669194221 -0.0007529999711550772 0.0547959990799427
          0.015185999684035778 0.00532899983227253 0.053977999836206436 0.010173000395298004 0.012388000264763832 0.05369900166988373
          0.013565000146627426 0.00841199979186058 0.04643699899315834 0.00939599983394146 0.010065999813377857 0.05005199834704399
          0.015747999772429466 0.005231000017374754 0.046845998615026474 0.006808000151067972 0.013009999878704548 0.051676999777555466
          0.0023870000150054693 0.007313999813050032 0.04947400093078613 0.0020989999175071716 0.0014860000228509307 0.04779300093650818
          0.004705999977886677 -0.0033919999841600657 0.04622599855065346 0.010373000055551529 -0.005392000079154968 0.047871001064777374
          0.014891999773681164 -0.0018479999853298068 0.04785799980163574 0.016201000660657883 0.0033259999472647905 0.040511999279260635
          0.013586999848484993 0.008196000009775162 0.03974299877882004 0.006233000196516514 0.013013999909162521 0.046907998621463776
          0.010014000348746777 0.012548999860882759 0.039657000452280045 0.015235000289976597 -0.0027970001101493835 0.04108000174164772
          0.000990999978967011 0.007278000004589558 0.044815000146627426 0.00037200000951997936 0.002319999970495701 0.042663998901844025
          0.0031320000998675823 -0.0006500000017695129 0.037188999354839325 0.0048039997927844524 -0.004741999786347151 0.03584900125861168
          0.011265000328421593 -0.006655000150203705 0.03995199874043465 0.014143000356853008 -0.001879999996162951 0.03373099863529205
          0.016269000247120857 0.0023270000237971544 0.03394699841737747 0.01434400025755167 0.00808900035917759 0.033424001187086105
          0.005456000100821257 0.014659999869763851 0.040015000849962234 0.010685999877750874 0.01193699985742569 0.03365999832749367
          0.0115130003541708 -0.0056329998187720776 0.03472499921917915 -0.0013389999512583017 0.008023000322282314 0.03803800046443939
          -0.001104000024497509 -0.0006150000263005495 0.035367999225854874 -0.002644999884068966 0.0027650000993162394 0.03581999987363815
          0.0015780000248923898 -0.003782999934628606 0.0337969996035099 0.00495600001886487 -0.006045000161975622 0.03225100040435791
          0.0128370001912117 -0.0036150000523775816 0.026139000430703163 0.013919999822974205 -0.00056900002527982 0.02449899911880493
          0.01281300000846386 0.004784999880939722 0.02459999918937683 0.014649000018835068 0.0058639999479055405 0.03177500143647194
          0.012498999945819378 0.011349000036716461 0.030048999935388565 0.002400000113993883 0.01603499986231327 0.03481600061058998
          0.009166000410914421 0.015073000453412533 0.03027000091969967 0.0027600000612437725 0.017664000391960144 0.030208999291062355
          0.008085000328719616 -0.005171999800950289 0.02856599912047386 -0.0038999998942017555 0.009557999670505524 0.032648999243974686
          -0.005948000121861696 -0.0021639999467879534 0.028396999463438988 -0.00033999999868683517 -0.0049959998577833176 0.030107999220490456
          -0.0064489999786019325 0.00419300002977252 0.029819000512361526 0.006306999828666449 0.006912999786436558 0.025464000180363655
          0.01279900036752224 0.009584999643266201 0.02514900080859661 0.0071310000494122505 0.002171000000089407 0.025844000279903412
          0.009002000093460083 0.013484000228345394 0.026162000373005867 -0.003955999854952097 0.011885000392794609 0.02832300029695034
          0.004379000049084425 0.011733000166714191 0.026172999292612076 0.0003769999893847853 -0.004592000041157007 0.027024999260902405
          -0.007873999886214733 0.004916999954730272 0.025165999308228493 -0.007315000053495169 -0.002053000032901764 0.02495099976658821
          -0.0009980000322684646 0.007304999977350235 0.024281000718474388 -0.00013800000306218863 0.00003400000059627928 0.024630000814795494
          0.0019180000526830554 0.004124999977648258 0.06364399939775467 -0.0005970000056549907 0.007218000013381243 0.07147099822759628
          -0.0005990000208839774 0.0067610000260174274 0.0707710012793541
          <InformationKey name="L2_NORM_RANGE" location="vtkDataArray" length="2">
            <Value index="0">
              0.02463041088
            </Value>
            <Value index="1">
              0.15215143859
            </Value>
          </InformationKey>
        </DataArray>
      </Points>
      <Verts>
        <DataArray type="Int64" Name="connectivity" format="ascii" RangeMin="1e+299" RangeMax="-1e+299">
        </DataArray>
        <DataArray type="Int64" Name="offsets" format="ascii" RangeMin="1e+299" RangeMax="-1e+299">
        </DataArray>
      </Verts>
      <Lines>
        <DataArray type="Int64" Name="connectivity" format="ascii" RangeMin="1e+299" RangeMax="-1e+299">
        </DataArray>
        <DataArray type="Int64" Name="offsets" format="ascii" RangeMin="1e+299" RangeMax="-1e+299">
        </DataArray>
      </Lines>
      <Strips>
        <DataArray type="Int64" Name="connectivity" format="ascii" RangeMin="1e+299" RangeMax="-1e+299">
        </DataArray>
        <DataArray type="Int64" Name="offsets" format="ascii" RangeMin="1e+299" RangeMax="-1e+299">
        </DataArray>
      </Strips>
      <Polys>
        <DataArray type="Int32" Name="connectivity" format="ascii" RangeMin="0" RangeMax="202">
          0 1 2 3 0 2
          0 4 1 0 2 1
          3 4 0 5 6 1
          7 1 6 2 1 7
          5 1 4 8 2 7
          3 2 8 3 9 4
          9 3 10 11 10 3
          11 3 8 4 9 12
          4 12 5 13 5 12
          5 13 6 14 6 13
          7 6 14 7 14 15
          8 7 16 7 15 16
          8 16 17 8 17 11
          12 9 18 19 18 9
          9 10 19 19 10 20
          21 20 10 21 10 11
          11 17 22 11 22 21
          23 12 18 13 12 23
          23 24 13 24 14 13
          24 15 14 15 25 16
          15 26 25 27 26 15
          27 15 24 28 17 16
          28 16 25 29 22 17
          29 17 28 30 31 18
          19 32 18 23 18 31
          32 30 18 33 32 19
          19 20 33 33 20 34
          20 21 35 20 35 34
          21 22 36 21 36 35
          37 36 22 37 22 29
          31 24 23 31 27 24
          38 25 26 39 28 25
          39 25 38 40 38 26
          40 26 27 30 40 27
          30 27 31 41 29 28
          41 28 39 42 37 29
          42 29 41 32 43 30
          43 40 30 33 44 32