<?xml version="1.0"?>
<VTKFile type="PolyData" version="0.1" byte_order="LittleEndian" header_type="UInt32" compressor="vtkZLibDataCompressor">
  <PolyData>
    <Piece NumberOfPoints="76" NumberOfVerts="0" NumberOfLines="0" NumberOfStrips="0" NumberOfPolys="148">
      <PointData Normals="Normals">
        <DataArray type="Float32" Name="Normals" NumberOfComponents="3" format="ascii" RangeMin="0.9999993468764377" RangeMax="1.000000504488398">
          0.9934520125389099 -0.07625699788331985 0.08507899940013885 0.7735859751701355 0.6214590072631836 0.12391199916601181
          0.7823370099067688 -0.13067400455474854 0.6089929938316345 0.6659870147705078 -0.29381000995635986 0.6856650114059448
          0.433802992105484 0.48982399702072144 -0.7562320232391357 0.8314679861068726 -0.5382500290870667 -0.13764899969100952
          0.3238080143928528 -0.06582800298929214 -0.9438300132751465 0.4419260025024414 -0.2903119921684265 0.8487759828567505
          0.6381210088729858 0.19035500288009644 0.7460340261459351 0.4672420024871826 0.8001229763031006 0.3761489987373352
          -0.15315499901771545 0.45579400658607483 -0.8768100142478943 0.12166900187730789 0.8006849884986877 -0.5866010189056396
          0.5553479790687561 -0.6420689821243286 0.5285230278968811 0.17682799696922302 -0.6979159712791443 0.6940069794654846
          0.01539899967610836 -0.42836999893188477 -0.9034720063209534 0.17782999575138092 -0.9026569724082947 -0.3919009864330292
          -0.1903509944677353 -0.049779001623392105 -0.9804530143737793 0.3253389894962311 0.17321699857711792 0.929597020149231
          0.18799200654029846 -0.6244770288467407 0.7580810189247131 -0.2994369864463806 -0.6935629844665527 0.6552159786224365
          -0.022897999733686447 -0.5267249941825867 0.8497269749641418 0.3050520122051239 0.9105200171470642 0.2790989875793457
          0.1356229931116104 0.3478879928588867 -0.9276739954948425 0.3513210117816925 0.7323819994926453 -0.5832589864730835
          -0.3047339916229248 -0.8276680111885071 -0.47127801179885864 -0.2834259867668152 -0.323855996131897 -0.9026550054550171
          0.20926499366760254 -0.010518999770283699 -0.9778019785881042 -0.49559199810028076 -0.7094200253486633 -0.5011100172996521
          0.41233399510383606 0.32731300592422485 0.8502039909362793 -0.4590489864349365 -0.7284089922904968 0.5086209774017334
          0.6123780012130737 0.020082000643014908 0.7903100252151489 -0.23769700527191162 -0.9200639724731445 0.3114210069179535
          0.1500989943742752 -0.9580079913139343 0.2443159967660904 0.48886799812316895 0.8723509907722473 0.0032770000398159027
          0.37028300762176514 0.7448580265045166 0.5550469756126404 0.5368760228157043 0.32375600934028625 -0.7790679931640625
          0.5230460166931152 0.06966099888086319 -0.8494529724121094 0.8979189991950989 0.36184200644493103 -0.25062400102615356
          0.10722099989652634 -0.6113150119781494 -0.784089982509613 -0.397148996591568 -0.9155009984970093 0.06427600234746933
          0.5118420124053955 0.6011710166931152 0.6136860251426697 0.4126020073890686 -0.2573550045490265 0.8738009929656982
          0.39264100790023804 0.38638800382614136 0.8345879912376404 0.43675801157951355 0.5539860129356384 0.7087609767913818
          0.201556995511055 -0.3443169891834259 0.9169629812240601 -0.3085640072822571 -0.5098119974136353 0.8030440211296082
          -0.45960599184036255 -0.8123940229415894 -0.3588559925556183 -0.10103800147771835 -0.6146529912948608 -0.7822999954223633
          -0.6652759909629822 -0.7194910049438477 0.1993499994277954 -0.4054490029811859 -0.7641459703445435 0.5016899704933167
          0.7673360109329224 0.5430330038070679 0.34104400873184204 0.865028977394104 0.06782399863004684 -0.49711599946022034
          0.7045080065727234 -0.4977709949016571 -0.5058580040931702 0.9611899852752686 0.07426399737596512 -0.26570600271224976
          0.9334099888801575 -0.03461199998855591 -0.3571380078792572 0.9828889966011047 0.17094199359416962 0.06861399859189987
          0.19453300535678864 -0.8274120092391968 -0.5268269777297974 -0.268002986907959 0.21950499713420868 0.9380789995193481
          -0.6273469924926758 0.3769550025463104 0.6814259886741638 -0.10715000331401825 0.7035220265388489 0.7025499939918518
          0.3459480106830597 0.6227419972419739 0.7017920017242432 -0.8494200110435486 -0.028421999886631966 0.5269520282745361
          -0.9442769885063171 0.026845000684261322 -0.3280540108680725 -0.9223669767379761 -0.37656599283218384 0.08623699843883514
          0.47308000922203064 0.03094100020825863 -0.8804759979248047 0.6879100203514099 -0.12074200063943863 -0.7156820297241211
          0.46498000621795654 0.11851400136947632 -0.8773530125617981 0.3743169903755188 0.9251750111579895 -0.06275700032711029
          -0.8632979989051819 0.03633600100874901 0.5033850073814392 -0.5329210162162781 0.7185770273208618 0.4468129873275757
          -0.9613990187644958 0.1391409933567047 0.23738400638103485 -0.36424100399017334 0.8013399839401245 0.4745340049266815
          -0.9355549812316895 0.3340129852294922 -0.11476799845695496 -0.42630499601364136 0.41211599111557007 -0.8052480220794678
          -0.3124690055847168 0.9290329813957214 -0.19814500212669373 -0.696461021900177 0.6956070065498352 0.17627400159835815
          <InformationKey name="L2_NORM_RANGE" location="vtkDataArray" length="2">
            <Value index="0">
              0.99999934688
            </Value>
            <Value index="1">
              1.0000005045
            </Value>
          </InformationKey>
        </DataArray>
      </PointData>
      <CellData>
      </CellData>
      <Points>
        <DataArray type="Float32" Name="Points" NumberOfComponents="3" format="ascii" RangeMin="0.013238054459666436" RangeMax="0.03681348715646579">
          0.013152999803423882 -0.02742299996316433 0.011730000376701355 0.011978000402450562 -0.02404800057411194 0.01312899962067604
          0.011837000027298927 -0.027605999261140823 0.013919999822974205 0.011281999759376049 -0.030205000191926956 0.013013999909162521
          0.012284000404179096 -0.025570999830961227 0.010449999943375587 0.011997000314295292 -0.03145499899983406 0.011629000306129456
          0.011636000126600266 -0.028957000002264977 0.009720000438392162 0.009948999620974064 -0.027267999947071075 0.015843000262975693
          0.010017000138759613 -0.02456199936568737 0.01609399914741516 0.009850000031292439 -0.02302899956703186 0.01522700022906065
          0.009619000367820263 -0.02644599974155426 0.01075000036507845 0.007890000008046627 -0.023343000560998917 0.012943999841809273
          0.010572999715805054 -0.03280600160360336 0.01293100044131279 0.008639000356197357 -0.03278300166130066 0.01361900009214878
          0.010123999789357185 -0.03179699927568436 0.010261000134050846 0.009014000184834003 -0.03356799855828285 0.011509999632835388
          0.0066709998063743114 -0.029147999361157417 0.01092899963259697 0.007087999954819679 -0.024188999086618423 0.017410999163985252
          0.0036170000676065683 -0.027264999225735664 0.017142999917268753 0.006624999921768904 -0.03206200152635574 0.014171999879181385
          0.0060339998453855515 -0.029231000691652298 0.015393000096082687 0.008496999740600586 -0.022631000727415085 0.015673000365495682
          0.005890999920666218 -0.025422999635338783 0.011700999923050404 0.006539999973028898 -0.022766999900341034 0.013387000188231468
          0.008066999725997448 -0.03357499837875366 0.01153200026601553 0.009042000398039818 -0.031902000308036804 0.010797999799251556
          0.004887999966740608 -0.028300000354647636 0.01089600007981062 0.005317999981343746 -0.03150099888443947 0.011535000056028366
          0.003942999988794327 -0.02418600022792816 0.01810700073838234 0.004383999854326248 -0.029844999313354492 0.01457899995148182
          0.000901999999769032 -0.025326000526547432 0.02112000063061714 0.0025110000278800726 -0.027977000921964645 0.0156230004504323
          -0.0010779999429360032 -0.027651000767946243 0.019175000488758087 0.004162000026553869 -0.02131200022995472 0.014654000289738178
          0.004302999936044216 -0.021890999749302864 0.01628899946808815 0.003312000073492527 -0.023886000737547874 0.011315999552607536
          0.0026499999221414328 -0.02659600041806698 0.010143999941647053 0.0024530000519007444 -0.0203000009059906 0.012426000088453293
          0.0021039999555796385 -0.028192000463604927 0.010041999630630016 0.00101500004529953 -0.027758000418543816 0.01297600008547306
          0.003000000026077032 -0.02180599980056286 0.01691100001335144 -0.0015180000336840749 -0.02539600059390068 0.02281700074672699
          -0.001988000003620982 -0.023669999092817307 0.022216999903321266 -0.000881000014487654 -0.01729400083422661 0.016902999952435493
          -0.0040779998525977135 -0.026030000299215317 0.023303000256419182 -0.006513999775052071 -0.02666899934411049 0.02293499931693077
          -0.011246999725699425 -0.02751000039279461 0.010638000443577766 -0.0008960000122897327 -0.02733900025486946 0.007023000158369541
          -0.009483999572694302 -0.028542999178171158 0.018376000225543976 -0.008255000226199627 -0.028630999848246574 0.020302999764680862
          0.0018269999418407679 -0.019355999305844307 0.014453000389039516 0.0018629999831318855 -0.022640999406576157 0.01002500019967556
          0.0008609999786131084 -0.02794799953699112 0.00865199975669384 0.0016039999900385737 -0.017381999641656876 0.00875800009816885
          0.0018579999450594187 -0.020304000005126 0.00811500009149313 0.0017130000051110983 -0.012776999734342098 0.010929999873042107
          0.00020599999697878957 -0.027816999703645706 0.007410999853163958 -0.005547000095248222 -0.023300999775528908 0.023691000416874886
          -0.008251000195741653 -0.01895200088620186 0.020509999245405197 -0.00228299992159009 -0.014538000337779522 0.015062999911606312
          0.00028899998869746923 -0.011602000333368778 0.01346299983561039 -0.009138000197708607 -0.026921000331640244 0.01986199989914894
          -0.011885000392794609 -0.02371699921786785 0.011428999714553356 -0.011575000360608101 -0.027396000921726227 0.012938999570906162
          0.0008069999748840928 -0.019773999229073524 0.006672999821603298 0.0006440000142902136 -0.025299999862909317 0.007462000008672476
          0.0013119999784976244 -0.015350000001490116 0.007530999835580587 0.0008319999906234443 -0.009278999641537666 0.009405000135302544
          -0.007794999983161688 -0.02239600010216236 0.020671000704169273 -0.01028900034725666 -0.015154000371694565 0.014140999875962734
          -0.010649999603629112 -0.016770999878644943 0.012496000155806541 -0.002125999890267849 -0.012807999737560749 0.013179999776184559
          -0.011227999813854694 -0.015131999738514423 0.009572000242769718 -0.009902999736368656 -0.013983000069856644 0.009046999737620354
          -0.0017040000529959798 -0.010812999680638313 0.008542000316083431 -0.010058999992907047 -0.014240000396966934 0.012035000137984753
          <InformationKey name="L2_NORM_RANGE" location="vtkDataArray" length="2">
            <Value index="0">
              0.01323805446
            </Value>
            <Value index="1">
              0.036813487156
            </Value>
          </InformationKey>
        </DataArray>
      </Points>
      <Verts>
        <DataArray type="Int64" Name="connectivity" format="ascii" RangeMin="1e+299" RangeMax="-1e+299">
        </DataArray>
        <DataArray type="Int64" Name="offsets" format="ascii" RangeMin="1e+299" RangeMax="-1e+299">
        </DataArray>
      </Verts>
      <Lines>
        <DataArray type="Int64" Name="connectivity" format="ascii" RangeMin="1e+299" RangeMax="-1e+299">
        </DataArray>
        <DataArray type="Int64" Name="offsets" format="ascii" RangeMin="1e+299" RangeMax="-1e+299">
        </DataArray>
      </Lines>
      <Strips>
        <DataArray type="Int64" Name="connectivity" format="ascii" RangeMin="1e+299" RangeMax="-1e+299">
        </DataArray>
        <DataArray type="Int64" Name="offsets" format="ascii" RangeMin="1e+299" RangeMax="-1e+299">
        </DataArray>
      </Strips>
      <Polys>
        <DataArray type="Int32" Name="connectivity" format="ascii" RangeMin="0" RangeMax="75">
          0 1 2 0 2 3
          0 4 1 0 3 5
          4 0 6 5 6 0
          1 7 2 1 8 7
          9 8 1 4 10 1
          10 11 1 1 11 9
          2 7 3 3 12 5
          13 3 7 3 13 12
          6 10 4 6 5 14
          15 5 12 5 15 14
          10 6 16 16 6 14
          7 8 17 18 7 17
          19 13 7 19 7 20
          20 7 18 9 17 8
          17 9 21 11 21 9
          22 10 16 10 22 11
          23 21 11 11 22 23
          12 13 15 15 13 24
          19 24 13 25 16 14
          15 25 14 24 25 15
          22 16 26 24 16 25
          16 27 26 16 24 27
          28 18 17 28 17 21
          18 29 20 18 28 30
          31 29 18 18 30 32
          31 18 32 24 19 27
          27 19 29 20 29 19
          21 23 33 21 33 34
          28 21 34 23 22 35
          36 35 22 36 22 26
          23 35 37 37 33 23
          38 26 27 26 38 36
          39 27 29 27 39 38
          40 28 34 40 30 28
          39 29 31 41 30 42
          41 32 30 42 30 43
          40 43 30 39 31 32
          32 44 45 46 47 32
          48 32 49 45 49 32
          32 48 46 32 41 44
          39 32 47 34 33 50
          33 37 50 40 34 50
          51 35 36 37 35 51
          36 52 51 52 36 38
          53 37 54 54 37 51
          37 55 50 55 37 53
          52 38 39 56 52 39
          47 56 39 43 40 50
          42 44 41 44 42 57
          43 57 42 58 43 59
          58 57 43 60 59 43
          60 43 50 44 57 45
          45 61 49 45 57 61
          46 62 47 46 63 62
          63 46 48 47 62 64
          47 65 56 64 65 47
          61 48 49 62 63 48
          61 62 48 50 55 60
          51 52 54 65 52 56
          52 65 54 54 64 53
          53 64 66 53 66 55
          65 64 54 55 66 67
          55 67 60 61 57 68
          58 68 57 59 69 58
          62 68 58 69 70 58
          58 70 62 71 59 60
          71 69 59 67 71 60
          62 61 68 64 62 66
          62 70 72 66 62 73
          72 73 62 74 66 73
          74 67 66 74 71 67
          71 74 69 69 74 75
          75 70 69 70 75 72
          72 75 73 73 75 74
        </DataArray>
        <DataArray type="Int32" Name="offsets" format="ascii" RangeMin="3" RangeMax="444">
          3 6 9 12 15 18
          21 24 27 30 33 36
          39 42 45 48 51 54
          57 60 63 66 69 72
          75 78 81 84 87 90
          93 96 99 102 105 108
          111 114 117 120 123 126
          129 132 135 138 141 144
          147 150 153 156 159 162
          165 168 171 174 177 180
          183 186 189 192 195 198
          201 204 207 210 213 216
          219 222 225 228 231 234
          237 240 243 246 249 252
          255 258 261 264 267 270
          273 276 279 282 285 288
          291 294 297 300 303 306
          309 312 315 318 321 324
          327 330 333 336 339 342
          345 348 351 354 357 360
          363 366 369 372 375 378
          381 384 387 390 393 396
          399 402 405 408 411 414
          417 420 423 426 429 432
          435 438 441 444
        </DataArray>
      </Polys>
    </Piece>
  </PolyData>
</VTKFile>
