<?xml version="1.0"?>
<VTKFile type="PolyData" version="0.1" byte_order="LittleEndian" header_type="UInt32" compressor="vtkZLibDataCompressor">
  <PolyData>
    <Piece NumberOfPoints="433" NumberOfVerts="0" NumberOfLines="0" NumberOfStrips="0" NumberOfPolys="900">
      <PointData Normals="Normals">
        <DataArray type="Float32" Name="Normals" NumberOfComponents="3" format="ascii" RangeMin="0.9999992544498355" RangeMax="1.0000007907443385">
          0.3160319924354553 0.32952800393104553 -0.8896819949150085 0.5893920063972473 0.28227001428604126 -0.756928026676178
          0.46174100041389465 0.8247439861297607 -0.32648399472236633 0.017568999901413918 0.2452249974012375 -0.969307005405426
          0.054864998906850815 -0.5792689919471741 -0.8132879734039307 0.35170799493789673 -0.4424850046634674 -0.8249300122261047
          0.2602880001068115 0.9153519868850708 -0.30721399188041687 -0.03596600145101547 0.5425969958305359 -0.8392230272293091
          0.6716970205307007 0.6987519860267639 -0.24610699713230133 0.08941700309515 -0.7023029923439026 -0.7062399983406067
          -0.09630600363016129 -0.574679970741272 -0.8126919865608215 0.7539499998092651 -0.06542599946260452 -0.6536650061607361
          -0.1793680042028427 -0.35921499133110046 -0.9158560037612915 0.5304710268974304 0.8472089767456055 -0.02893099933862686
          -0.04239499941468239 -0.7708219885826111 -0.6356390118598938 -0.12480299919843674 -0.7199400067329407 -0.6827229857444763
          0.8894550204277039 0.4402329921722412 -0.12273900210857391 -0.29304900765419006 0.12756800651550293 -0.9475489854812622
          0.34223198890686035 0.9310939908027649 0.1262589991092682 0.10566700249910355 0.9313420057296753 -0.3484779894351959
          -0.20159700512886047 0.8116559982299805 -0.5482460260391235 0.6777499914169312 0.7351149916648865 0.016171999275684357
          0.020183999091386795 -0.8332870006561279 -0.5524730086326599 -0.36076000332832336 -0.6993719935417175 -0.6170330047607422
          -0.3280879855155945 -0.5281919836997986 -0.7831799983978271 0.031606998294591904 -0.7300170063972473 -0.6826980113983154
          0.43788400292396545 -0.6608690023422241 -0.609516978263855 -0.2230300009250641 -0.4814760088920593 -0.8476070165634155
          0.8920680284500122 -0.22324299812316895 -0.3929080069065094 0.5085020065307617 0.8294349908828735 0.231222003698349
          0.3810189962387085 0.8793349862098694 0.285647988319397 0.21462799608707428 0.9238659739494324 0.31686899065971375
          -0.02371400035917759 0.9993219971656799 -0.028147999197244644 0.7229070067405701 0.6576470136642456 0.21191099286079407
          -0.09171199798583984 -0.7686169743537903 -0.6331009864807129 -0.02749199979007244 -0.8764920234680176 -0.4806309938430786
          -0.7225710153579712 -0.38194501399993896 -0.5762019753456116 -0.34206700325012207 -0.6282610297203064 -0.6987689733505249
          -0.6212790012359619 -0.4421370029449463 -0.6469370126724243 -0.6133559942245483 -0.41092100739479065 -0.6744920015335083
          0.907060980796814 -0.2550390064716339 -0.33495500683784485 -0.546671986579895 0.1547819972038269 -0.8229169845581055
          0.43887999653816223 0.7635769844055176 0.47363901138305664 0.06607799977064133 0.9577280282974243 0.2799830138683319
          0.2471179962158203 0.8500959873199463 0.4650479853153229 0.12902000546455383 0.9062129855155945 0.4026559889316559
          -0.24624599516391754 0.9287149906158447 -0.2772209942340851 -0.43532198667526245 0.6838380098342896 -0.5855420231819153
          -0.561024010181427 0.632532000541687 -0.5339999794960022 0.8998339772224426 0.38606300950050354 0.2031099945306778
          0.34631800651550293 -0.781017005443573 -0.5196880102157593 0.009258000180125237 -0.8147280216217041 -0.579770028591156
          0.1534709930419922 -0.876013994216919 -0.45721501111984253 0.03967500105500221 -0.8514149785041809 -0.5229910016059875
          -0.14058400690555573 -0.7885720133781433 -0.59865802526474 0.08632499724626541 -0.920199990272522 -0.3818109929561615
          0.10267899930477142 -0.921995997428894 -0.3733380138874054 0.21596799790859222 -0.9141790270805359 -0.3429790139198303
          -0.1008950024843216 -0.9367030262947083 -0.33527299761772156 -0.8535490036010742 -0.23596499860286713 -0.4645169973373413
          -0.40641599893569946 -0.6045680046081543 -0.6850720047950745 -0.7225210070610046 -0.19328899681568146 -0.6637790203094482
          -0.693219006061554 -0.02614700049161911 -0.7202519774436951 0.4864499866962433 0.6174420118331909 0.6181679964065552
          0.6033260226249695 0.6243100166320801 0.4962190091609955 0.05423799902200699 0.9829270243644714 0.175819993019104
          0.14852400124073029 0.7908290028572083 0.5937430262565613 0.027157999575138092 0.9031000137329102 0.4285700023174286
          -0.47949400544166565 0.7628250122070312 -0.4338020086288452 -0.8167970180511475 0.09143199771642685 -0.5696330070495605
          0.8976550102233887 0.16953499615192413 0.4067850112915039 0.9529809951782227 -0.27521800994873047 -0.12681500613689423
          0.1337530016899109 -0.8922939896583557 -0.4311850070953369 -0.1653829962015152 -0.7907630205154419 -0.5893579721450806
          -0.03669000044465065 -0.8515110015869141 -0.5230510234832764 0.13986599445343018 -0.9470800161361694 -0.2889229953289032
          0.26469799876213074 -0.9126219749450684 -0.31154000759124756 0.33752501010894775 -0.9119790196418762 -0.2331780046224594
          0.300805002450943 -0.9086830019950867 -0.2895039916038513 0.07215499877929688 -0.977180004119873 -0.19978199899196625
          -0.5259929895401001 -0.4730120003223419 -0.7068179845809937 -0.52326500415802 -0.47733500599861145 -0.7059360146522522
          -0.3198370039463043 -0.6980190277099609 -0.6406819820404053 -0.6611909866333008 -0.24452799558639526 -0.7092480063438416
          -0.8263239860534668 -0.13159699738025665 -0.5476049780845642 -0.8207399845123291 0.0391170009970665 -0.5699610114097595
          -0.8203309774398804 -0.004017999861389399 -0.5718749761581421 0.6334450244903564 0.4779430031776428 0.6085370182991028
          -0.1468140035867691 0.9874489903450012 -0.05821499973535538 0.2564209997653961 0.7340419888496399 0.628832995891571
          0.28395000100135803 0.6638439893722534 0.6918699741363525 0.14276500046253204 0.7358970046043396 0.6618710160255432
          -0.3651059865951538 0.8544989824295044 0.36949801445007324 0.0069160000421106815 0.7291269898414612 0.6843429803848267
          -0.611132025718689 0.6378189921379089 -0.4687269926071167 -0.7942249774932861 0.28199300169944763 -0.538224995136261
          0.9083009958267212 -0.26524099707603455 0.32347598671913147 0.8874859809875488 0.0059899999760091305 0.4607970118522644
          0.8524550199508667 -0.5215200185775757 0.03657599911093712 0.5551570057868958 -0.8089519739151001 -0.19338299334049225
          0.05133400112390518 -0.8829119801521301 -0.4667229950428009 -0.12319999933242798 -0.813916027545929 -0.5677700042724609
          0.5184400081634521 -0.8541799783706665 0.03996000066399574 0.33395498991012573 -0.9380289912223816 -0.09260500222444534
          0.5406349897384644 -0.8247140049934387 0.16601599752902985 0.5132020115852356 -0.8581870198249817 -0.0117790000513196
          0.32685500383377075 -0.9436489939689636 -0.05188300088047981 -0.7665719985961914 -0.18209700286388397 -0.6157990097999573
          -0.8945279717445374 -0.06046399846673012 -0.4429030120372772 -0.854299008846283 0.07333900034427643 -0.5145829916000366
          -0.3304150104522705 -0.6902009844779968 -0.6437770128250122 -0.3626919984817505 -0.6576300263404846 -0.6602849960327148
          -0.21717199683189392 -0.775704026222229 -0.5925530195236206 -0.797819972038269 0.20648600161075592 -0.5664330124855042
          -0.8064299821853638 0.5412330031394958 -0.23819500207901 0.5413100123405457 0.5341070294380188 0.6493949890136719
          0.7461749911308289 0.3204280138015747 0.5835649967193604 0.10153800249099731 0.6875190138816833 0.7190319895744324
          0.11792200058698654 0.64963698387146 0.7510430216789246 0.11073199659585953 0.6846219897270203 0.7204380035400391
          -0.46306198835372925 0.6647149920463562 0.5862830281257629 -0.04781100153923035 -0.838271975517273 -0.5431519746780396
          0.32526201009750366 -0.9021940231323242 -0.283286988735199 -0.23038700222969055 -0.7788000106811523 -0.5834320187568665
          0.793595016002655 -0.5492280125617981 0.26183000206947327 0.6768040060997009 -0.47168099880218506 0.565201997756958
          0.726485013961792 -0.5854269862174988 0.3598540127277374 -0.3927119970321655 -0.6007900238037109 -0.696295976638794
          -0.748117983341217 0.11573699861764908 -0.6533939838409424 -0.5625159740447998 -0.393669992685318 -0.7270489931106567
          -0.19577600061893463 -0.720304012298584 -0.6654580235481262 -0.8860269784927368 -0.02735999971628189 -0.4628260135650635
          -0.8951860070228577 0.41738900542259216 0.1562969982624054 0.7604929804801941 -0.007538000121712685 0.6493030190467834
          0.4938809871673584 0.5191180109977722 0.6975659728050232 0.0667629987001419 0.7559620141983032 0.6512020230293274
          0.2870810031890869 0.5922849774360657 0.7528499960899353 0.41964200139045715 0.48709800839424133 0.7659220099449158
          0.23384299874305725 0.48791998624801636 0.8409820199012756 -0.22611099481582642 0.674140989780426 0.703141987323761
          -0.5432819724082947 0.8362489938735962 -0.07437700033187866 -0.8723019957542419 0.4837239980697632 -0.07141599804162979
          -0.8098049759864807 0.2779659926891327 -0.5166730284690857 0.8444979786872864 -0.3990379869937897 0.3571990132331848
          0.6483089923858643 -0.7599400281906128 0.04675300046801567 0.5446500182151794 -0.8200780153274536 0.1755789965391159
          0.5630279779434204 -0.3937009871006012 0.7266349792480469 0.5988330245018005 -0.5476469993591309 0.5843639969825745
          0.5706570148468018 -0.2702920138835907 0.7754309773445129 0.6586400270462036 -0.013454999774694443 0.7523379921913147
          0.7705749869346619 -0.30154600739479065 0.5615019798278809 -0.8713390231132507 0.24061700701713562 -0.4276359975337982
          -0.5387210249900818 -0.3423300087451935 -0.769798994064331 -0.3233259916305542 -0.5731859803199768 -0.7529399991035461
          -0.714031994342804 0.15247400104999542 -0.6833080053329468 0.06962300091981888 -0.8205940127372742 -0.5672550201416016
          -0.18497900664806366 -0.6278570294380188 -0.7560279965400696 -0.5021389722824097 0.8557760119438171 -0.1245110034942627
          -0.9775090217590332 0.12613600492477417 -0.1690170019865036 -0.6020449995994568 0.753171980381012 0.26509198546409607
          0.5134459733963013 0.17643600702285767 0.839788019657135 0.32775500416755676 0.7421039938926697 0.5846869945526123
          -0.22283899784088135 0.9281449913978577 0.29814499616622925 -0.3774369955062866 0.6959440112113953 0.6109039783477783
          0.45333099365234375 0.1055150032043457 0.8850749731063843 -0.7111189961433411 0.6983000040054321 -0.08177100121974945
          -0.8598269820213318 0.39147600531578064 0.32778701186180115 0.4227199852466583 -0.8601570129394531 -0.2853730022907257
          0.8415539860725403 -0.28115200996398926 0.46123799681663513 0.7739949822425842 -0.6329569816589355 -0.017222000285983086
          0.6350679993629456 -0.6968240141868591 0.3333530128002167 -0.6581720113754272 0.14022000133991241 -0.7396939992904663
          -0.5223140120506287 -0.08700300008058548 -0.8483039736747742 -0.43435201048851013 -0.3743189871311188 -0.8192830085754395
          -0.3084540069103241 -0.46620699763298035 -0.8291599750518799 -0.7741559743881226 0.45242801308631897 -0.4427089989185333
          -0.6930410265922546 0.04701400175690651 -0.7193629741668701 0.05306899920105934 -0.680679976940155 -0.7306560277938843
          0.17782899737358093 -0.8235729932785034 -0.5386139750480652 -0.11868300288915634 -0.47120800614356995 -0.8740010261535645
          -0.5539730191230774 0.8044030070304871 -0.21459099650382996 -0.5277820229530334 0.8493540287017822 0.006647999864071608
          0.3692390024662018 0.6831449866294861 0.6300600171089172 0.18950800597667694 0.8611950278282166 0.4716250002384186
          -0.09250099956989288 0.9702410101890564 0.2237749993801117 0.3532719910144806 0.16916300356388092 0.9200990200042725
          0.2412080019712448 0.3796209990978241 0.8931440114974976 0.31029099225997925 -0.8082600235939026 -0.5004349946975708
          0.8861460089683533 -0.1993270069360733 0.4183480143547058 0.8037239909172058 -0.5850129723548889 0.10857000201940536
          0.8035680055618286 -0.5877879858016968 -0.09372299909591675 0.4704200029373169 0.20653000473976135 0.8579339981079102
          0.7358899712562561 0.09820300340652466 0.6699420213699341 -0.29333800077438354 -0.26998600363731384 -0.9170929789543152
          -0.4972420036792755 0.20840199291706085 -0.8422110080718994 -0.6349650025367737 0.4334529936313629 -0.6394829750061035
          -0.3698990046977997 -0.016579000279307365 -0.928924024105072 -0.1672540009021759 -0.3841789960861206 -0.9079830050468445
          -0.7228860259056091 0.4881489872932434 -0.4890260100364685 -0.07411299645900726 -0.3735400140285492 -0.9246490001678467
          -0.00929300021380186 -0.39487600326538086 -0.9186869859695435 0.09658800065517426 -0.5248110294342041 -0.8457210063934326
          -0.04772699996829033 -0.56632000207901 -0.8228020071983337 -0.6151620149612427 0.6753770112991333 -0.40674498677253723
          0.5590190291404724 0.516523003578186 0.6486150026321411 0.08759000152349472 0.9354060292243958 0.3425559997558594
          0.12502099573612213 0.9199789762496948 0.37149500846862793 0.3323250114917755 0.8233669996261597 0.4600290060043335
          -0.042426999658346176 0.9653469920158386 0.25749701261520386 0.4770750105381012 -0.8139700293540955 -0.3314400017261505
          0.5588020086288452 -0.6806139945983887 -0.47381898760795593 0.31212499737739563 -0.7125920057296753 -0.6283239722251892
          0.7502959966659546 0.19276200234889984 0.6323760151863098 0.9380509853363037 -0.23186500370502472 0.2574850022792816
          0.827193021774292 0.209538996219635 0.5213879942893982 0.8588749766349792 -0.424809992313385 -0.28613001108169556
          0.6840190291404724 0.3372940123081207 0.6468009948730469 -0.19998699426651 -0.20253899693489075 -0.9586359858512878
          -0.24077700078487396 -0.1208140030503273 -0.9630320072174072 -0.49980300664901733 0.5872169733047485 -0.6366900205612183
          -0.32488399744033813 0.31073498725891113 -0.893248975276947 -0.19900000095367432 0.3410930037498474 -0.918724000453949
          -0.17920899391174316 -0.3576120138168335 -0.916513979434967 0.3027999997138977 -0.6504290103912354 -0.6966019868850708
          -0.15358200669288635 -0.40481600165367126 -0.9014080166816711 -0.0545319989323616 -0.580456018447876 -0.8124629855155945
          0.1916559934616089 -0.5633019804954529 -0.8037160038948059 0.1077750027179718 -0.6664860248565674 -0.7376869916915894
          -0.15352100133895874 -0.7705100178718567 -0.618664026260376 -0.5603939890861511 0.7905089855194092 -0.24709199368953705
          0.729079008102417 0.35637998580932617 0.5843260288238525 0.6519830226898193 0.4973610043525696 0.572318971157074
          0.28222599625587463 0.8466519713401794 0.45114201307296753 -0.03720900043845177 0.9115229845046997 0.40956300497055054
          -0.09778600186109543 0.9618849754333496 0.25537100434303284 0.6081110239028931 0.6085770130157471 0.5097410082817078
          0.44853198528289795 -0.7357659935951233 -0.5074120163917542 0.4064429998397827 -0.6404970288276672 -0.6515889763832092
          0.9895970225334167 -0.1038770005106926 0.09953399747610092 -0.4334689974784851 0.8891220092773438 -0.14685599505901337
          -0.26439499855041504 -0.21748100221157074 -0.9395729899406433 -0.33758699893951416 -0.2728469967842102 -0.9008830189704895
          -0.3934440016746521 -0.04227200150489807 -0.9183760285377502 -0.2478339970111847 -0.0011490000179037452 -0.9688019752502441
          -0.29993900656700134 0.7852839827537537 -0.5416319966316223 -0.5504000186920166 -0.30897998809814453 -0.7756230235099792
          0.34801000356674194 -0.6362339854240417 -0.6885460019111633 -0.35469600558280945 -0.48601099848747253 -0.798740029335022
          -0.35290399193763733 -0.3957740068435669 -0.8478339910507202 -0.30534398555755615 -0.661217987537384 -0.6852419972419739
          -0.18313799798488617 -0.8349140286445618 -0.5190169811248779 0.2816529870033264 -0.7782390117645264 -0.5612630248069763
          -0.20642100274562836 -0.8022540211677551 -0.5601599812507629 -0.22499999403953552 -0.8754280209541321 -0.4277859926223755
          -0.34790799021720886 0.9375150203704834 -0.005135999992489815 0.03101000003516674 0.9262160062789917 0.3757160007953644
          0.04320500046014786 0.8941540122032166 0.4456689953804016 0.22257000207901 0.8003860116004944 0.5566380023956299
          -0.06422899663448334 0.9635869860649109 0.2595680058002472 0.44143998622894287 0.7392110228538513 0.5086240172386169
          0.7001019716262817 -0.3658050000667572 -0.613224983215332 0.387131005525589 -0.6844859719276428 -0.6177449822425842
          0.6092020273208618 -0.6235250234603882 -0.4899890124797821 0.5233759880065918 -0.6205790042877197 -0.5839170217514038
          0.36104199290275574 -0.7899029850959778 -0.4956830143928528 0.37223899364471436 -0.7501050233840942 -0.5466079711914062
          0.92610102891922 -0.30351999402046204 -0.22407999634742737 0.8867470026016235 0.2914330065250397 0.35881298780441284
          0.9741439819335938 0.18017199635505676 0.13631099462509155 -0.2853600084781647 0.9347540140151978 -0.21167099475860596
          -0.37404701113700867 0.622409999370575 -0.6875280141830444 -0.6917219758033752 -0.2278279960155487 -0.6852849721908569
          -0.5284789800643921 0.1421319991350174 -0.8369640111923218 -0.11852899938821793 0.8875669836997986 -0.44516900181770325
          -0.5829749703407288 -0.5427320003509521 -0.6046339869499207 -0.6686729788780212 -0.36884599924087524 -0.6456230282783508
          -0.4836289882659912 -0.7217289805412292 -0.49518701434135437 0.09636099636554718 -0.8450559973716736 -0.5259230136871338
          -0.018851999193429947 -0.9494799971580505 -0.3132619857788086 -0.2839980125427246 -0.9153000116348267 -0.2856059968471527
          -0.44209301471710205 -0.8622499704360962 -0.2471410036087036 -0.03587200120091438 0.9805120229721069 0.19315800070762634
          0.10120700299739838 0.9131289720535278 0.39490699768066406 0.13522499799728394 0.8291929960250854 0.5423589944839478
          -0.09310399740934372 0.8746880292892456 0.4756599962711334 -0.0498960018157959 0.8859429955482483 0.4611020088195801
          0.721451997756958 0.5363219976425171 0.43802499771118164 0.7918969988822937 -0.5149319767951965 -0.32824599742889404
          0.5625370144844055 -0.6183630228042603 -0.5487980246543884 0.4318639934062958 -0.8362230062484741 -0.3379710018634796
          0.37201499938964844 -0.916700005531311 -0.14582699537277222 0.9562619924545288 0.045857999473810196 -0.28889599442481995
          0.8935220241546631 0.4072760045528412 0.1890619993209839 -0.6273959875106812 -0.3024350106716156 -0.7175710201263428
          -0.7324249744415283 -0.31365901231765747 -0.6042940020561218 -0.6512330174446106 0.4972969889640808 -0.5732290148735046
          -0.11747699975967407 0.9888380169868469 -0.09165000170469284 -0.085037000477314 0.9405180215835571 -0.32892900705337524
          -0.7756569981575012 -0.32460901141166687 -0.54128098487854 -0.8781189918518066 -0.40933799743652344 -0.24768699705600739
          -0.9641720056533813 -0.2081660032272339 0.16443799436092377 0.1995909959077835 -0.9608169794082642 -0.19233599305152893
          -0.2493000030517578 -0.9678859710693359 0.03235200047492981 0.042826998978853226 0.9698489904403687 0.23991400003433228
          0.18636199831962585 0.8987849950790405 0.3968049883842468 0.142752006649971 0.7865359783172607 0.6008179783821106
          0.04845000058412552 0.8484659790992737 0.5270270109176636 0.4828200042247772 0.6898009777069092 0.5394989848136902
          0.3006719946861267 0.8102189898490906 0.5031309723854065 0.13538099825382233 0.8166189789772034 0.56107497215271
          0.6874799728393555 0.5562959909439087 0.46680501103401184 0.9988610148429871 0.024553000926971436 0.040915001183748245
          0.8964419960975647 0.3882269859313965 -0.2137089967727661 0.7420120239257812 -0.6654580235481262 -0.08113999664783478
          0.5607389807701111 -0.7714059948921204 -0.30083999037742615 0.511696994304657 -0.855459988117218 0.07971099764108658
          0.09768400341272354 -0.9436969757080078 0.3160589933395386 0.5848309993743896 0.5288739800453186 0.615032970905304
          0.7526770234107971 0.5332760214805603 0.3861269950866699 -0.8468890190124512 -0.2939009964466095 -0.44317200779914856
          -0.9139670133590698 -0.05457499995827675 -0.4021010100841522 -0.7822489738464355 0.11176799982786179 -0.6128569841384888
          -0.9961619973182678 -0.08747100085020065 0.0033050000201910734 -0.9064720273017883 0.2300640046596527 -0.35408899188041687
          0.016997000202536583 0.9971969723701477 0.07286600023508072 -0.1711139976978302 0.9768700003623962 -0.1282380074262619
          -0.5751150250434875 0.8180509805679321 -0.005888000130653381 -0.7900230288505554 -0.611050009727478 -0.04980500042438507
          -0.8341529965400696 -0.11709000170230865 0.5389609932899475 -0.3544360101222992 -0.7994409799575806 0.4850449860095978
          -0.3541400134563446 -0.7810249924659729 0.514378011226654 -0.5642960071563721 -0.34631600975990295 0.7494230270385742
          0.028860000893473625 0.9778710007667542 0.20721100270748138 0.11684799939393997 0.8184319734573364 0.5625969767570496
          0.2132979929447174 0.9425510168075562 0.2571040093898773 0.05279599875211716 0.758167028427124 0.6499199867248535
          0.062192000448703766 0.6613969802856445 0.747452974319458 0.02811099961400032 0.7459279894828796 0.6654319763183594
          0.16636300086975098 0.715378999710083 0.678642988204956 0.483599990606308 0.721077024936676 0.496165007352829
          0.47429099678993225 0.5992400050163269 0.6449490189552307 0.8671600222587585 -0.31717801094055176 0.3839679956436157
          0.5690670013427734 -0.8188779950141907 0.07484400272369385 0.16398200392723083 -0.7508839964866638 0.639752984046936
          -0.0454070009291172 -0.5891849994659424 0.8067209720611572 -0.08373499661684036 -0.8483160138130188 0.5228270292282104
          -0.9735590219497681 -0.19624699652194977 -0.11692000180482864 -0.9141680002212524 0.4016300141811371 0.05467800050973892
          -0.994268000125885 0.051224999129772186 -0.09384900331497192 -0.12033999711275101 0.9760730266571045 -0.18110600113868713
          0.014027000404894352 0.9925230145454407 0.12125000357627869 -0.2555769979953766 0.9483979940414429 0.18767499923706055
          -0.21705900132656097 -0.34437400102615356 0.9133960008621216 -0.14648699760437012 0.6557660102844238 0.7406160235404968
          0.207179993391037 0.9242810010910034 0.32059499621391296 -0.12723200023174286 0.6955450177192688 0.7071279883384705
          -0.21375399827957153 0.6475729942321777 0.7314090132713318 0.01040900032967329 0.625078022480011 0.7804930210113525
          0.10579200088977814 0.5809040069580078 0.8070679903030396 0.38245099782943726 0.7524089813232422 0.5362949967384338
          0.0704680010676384 0.5791440010070801 0.8121740221977234 0.30249500274658203 0.48195698857307434 0.8223220109939575
          0.7109019756317139 -0.5156220197677612 0.4782809913158417 0.5677559971809387 0.26739901304244995 0.7785570025444031
          0.28251099586486816 0.3017910122871399 0.9105550050735474 0.360929012298584 0.44932499527931213 0.8172129988670349
          -0.7250329852104187 -0.12211299687623978 0.6778020262718201 -0.97359699010849 -0.00583800021559 0.22819900512695312
          -0.8522850275039673 0.36118900775909424 0.378356009721756 -0.1289830058813095 0.9082340002059937 0.3980900049209595
          -0.6317269802093506 0.7030360102653503 0.3265889883041382 -0.6324120163917542 -0.06454399973154068 0.7719389796257019
          -0.4166429936885834 0.19076600670814514 0.8888289928436279 -0.5405309796333313 -0.0866980031132698 0.8368449807167053
          -0.5004389882087708 0.11730500310659409 0.8577880263328552 -0.21171900629997253 -0.09929899871349335 0.9722729921340942
          -0.25994300842285156 0.7913600206375122 0.5533350110054016 -0.31644999980926514 0.5437920093536377 0.7772709727287292
          -0.3727859854698181 0.5718899965286255 0.7307339906692505 -0.5965790152549744 0.30014199018478394 0.7443169951438904
          -0.7393659949302673 -0.2136639952659607 0.6385030150413513 -0.3424510061740875 0.32388100028038025 0.8819460272789001
          -0.7036970257759094 0.0771000012755394 0.7063050270080566 -0.25760701298713684 0.08455000072717667 0.9625430107116699
          -0.0990540012717247 -0.14657999575138092 0.9842270016670227 0.1570190042257309 0.3521229922771454 0.9226890206336975
          0.7928789854049683 0.13492000102996826 0.5942559838294983 0.6974149942398071 -0.1385120004415512 0.703154981136322
          0.45923298597335815 -0.5160319805145264 0.7230600118637085 0.32112398743629456 -0.7503960132598877 0.5777419805526733
          -0.1878490000963211 -0.22838200628757477 0.9552770256996155 -0.803846001625061 0.16488300263881683 0.571528971195221
          -0.7065219879150391 -0.17373999953269958 0.6860330104827881 -0.4151569902896881 0.7413709759712219 0.5272700190544128
          -0.40879398584365845 0.09088700264692307 0.9080899953842163 -0.266728013753891 0.15839500725269318 0.9506670236587524
          -0.308786004781723 0.18566299974918365 0.9328349828720093 -0.5254930257797241 -0.0997449979186058 0.8449310064315796
          -0.14297600090503693 -0.18483899533748627 0.9723129868507385 -0.48281699419021606 0.39093300700187683 0.7836189866065979
          -0.6531839966773987 0.325872004032135 0.683489978313446 -0.3748779892921448 -0.3996700048446655 0.8364989757537842
          0.16686299443244934 -0.0487309992313385 0.9847750067710876 0.2028769999742508 0.22900600731372833 0.9520490169525146
          0.47916799783706665 -0.05874599888920784 0.8757550120353699 0.10038600116968155 -0.5191969871520996 0.8487380146980286
          -0.31852200627326965 -0.3821220099925995 0.8674830198287964 -0.363182008266449 -0.12028300017118454 0.9239209890365601
          -0.377905011177063 -0.09712699800729752 0.9207360148429871 0.33203598856925964 0.13906699419021606 0.9329590201377869
          0.13246899843215942 0.07336100190877914 0.9884690046310425 0.18139000236988068 0.014461999759078026 0.9833049774169922
          -0.6976850032806396 -0.18804700672626495 0.6912850141525269 -0.5578539967536926 -0.3960239887237549 0.729358971118927
          -0.268873006105423 -0.012930000200867653 0.9630889892578125 -0.584043025970459 -0.5313349962234497 0.6136590242385864
          -0.794152021408081 -0.39966899156570435 0.4578070044517517 -0.6385120153427124 -0.6398869752883911 0.4276059865951538
          -0.4790630042552948 -0.4513480067253113 0.7528499960899353 -0.1421460062265396 -0.6967229843139648 0.7031159996986389
          0.10516499727964401 -0.2507439851760864 0.9623240232467651 0.20584599673748016 -0.2728559970855713 0.9397749900817871
          -0.45593398809432983 -0.40649598836898804 0.7917609810829163 -0.3210409879684448 -0.3950110077857971 0.8607550263404846
          -0.09989400207996368 -0.2966049909591675 0.9497619867324829 -0.6926100254058838 -0.541155993938446 0.47690799832344055
          -0.40853598713874817 -0.4421299993991852 0.7985110282897949 -0.4108330011367798 -0.768222987651825 0.4909670054912567
          -0.2988159954547882 -0.8144069910049438 0.4974440038204193 -0.1839579939842224 -0.6289460062980652 0.7553709745407104
          -0.3137499988079071 -0.44652900099754333 0.8379579782485962 -0.21564899384975433 -0.4308060109615326 0.8762999773025513
          -0.3840169906616211 -0.8006539940834045 0.4598740041255951
          <InformationKey name="L2_NORM_RANGE" location="vtkDataArray" length="2">
            <Value index="0">
              0.99999925445
            </Value>
            <Value index="1">
              1.0000007907
            </Value>
          </InformationKey>
        </DataArray>
      </PointData>
      <CellData>
      </CellData>
      <Points>
        <DataArray type="Float32" Name="Points" NumberOfComponents="3" format="ascii" RangeMin="0.08896292281469034" RangeMax="0.09520715238777086">
          0.020531000569462776 -0.07026699930429459 -0.05989599972963333 0.020986000075936317 -0.07034000009298325 -0.059696998447179794
          0.020515000447630882 -0.06992500275373459 -0.059401001781225204 0.020037999376654625 -0.07016900181770325 -0.05997300148010254
          0.02042599953711033 -0.07090499997138977 -0.0598439984023571 0.020980000495910645 -0.07088399678468704 -0.05974600091576576
          0.02001499943435192 -0.06966699659824371 -0.059248000383377075 0.019487999379634857 -0.07012800127267838 -0.05988999828696251
          0.02105800062417984 -0.07029499858617783 -0.05913599953055382 0.020586999133229256 -0.07135099917650223 -0.05947500094771385
          0.01994900032877922 -0.07112099975347519 -0.05971299856901169 0.021425999701023102 -0.07092799991369247 -0.05948900058865547
          0.01947600021958351 -0.07063300162553787 -0.05997899919748306 0.02083900012075901 -0.06994400173425674 -0.058830998837947845
          0.020042000338435173 -0.07184900343418121 -0.05889799818396568 0.019221000373363495 -0.07150500267744064 -0.05923200026154518
          0.021661000326275826 -0.07061400264501572 -0.05893699824810028 0.01895900070667267 -0.07045800238847733 -0.05989899858832359