<?xml version="1.0"?>
<VTKFile type="PolyData" version="0.1" byte_order="LittleEndian" header_type="UInt32" compressor="vtkZLibDataCompressor">
  <PolyData>
    <Piece NumberOfPoints="578" NumberOfVerts="0" NumberOfLines="0" NumberOfStrips="0" NumberOfPolys="1166">
      <PointData Normals="Normals">
        <DataArray type="Float32" Name="Normals" NumberOfComponents="3" format="ascii" RangeMin="0.9999991930530111" RangeMax="1.0000006655825187">
          -0.3410089910030365 -0.8075460195541382 -0.4812310039997101 -0.3543199896812439 -0.6076149940490723 -0.7108169794082642
          0.06754899770021439 -0.802111029624939 -0.5933420062065125 0.12873899936676025 -0.9096540212631226 -0.394912987947464
          -0.7555829882621765 -0.5742400288581848 -0.3151879906654358 -0.1544259935617447 -0.9879900217056274 -0.0052559999749064445
          -0.54271399974823 -0.8378710150718689 0.05859899893403053 -0.12726299464702606 -0.6000549793243408 -0.7897710204124451
          -0.4555850028991699 -0.27275198698043823 -0.8473780155181885 -0.5573139786720276 -0.1249149963259697 -0.8208519816398621
          -0.6138259768486023 -0.44383999705314636 -0.6528580188751221 0.12593600153923035 -0.7018439769744873 -0.7011100053787231
          0.6063609719276428 -0.7577800154685974 -0.24102899432182312 0.33239999413490295 -0.9421210289001465 0.043806999921798706
          -0.922764003276825 -0.15304100513458252 -0.3536750078201294 -0.7886679768562317 -0.6057999730110168 0.10492300242185593
          -0.9364050030708313 -0.3467639982700348 -0.053856998682022095 -0.06224000081419945 -0.9774720072746277 0.20167799293994904
          0.32861799001693726 -0.9158099889755249 0.2308730036020279 -0.6324899792671204 -0.6087350249290466 0.4789550006389618
          -0.25648099184036255 -0.8946369886398315 0.3658449947834015 -0.06774000078439713 -0.3669910132884979 -0.9277549982070923
          -0.42931199073791504 -0.1267320066690445 -0.8942199945449829 -0.9319800138473511 0.1096699982881546 -0.3455219864845276
          -0.21377700567245483 0.061468999832868576 -0.9749469757080078 -0.5820080041885376 0.015189000405371189 -0.8130409717559814
          0.5580970048904419 -0.44793298840522766 -0.6984859704971313 0.4575519859790802 -0.5816850066184998 -0.6725249886512756
          0.8137890100479126 -0.4748860001564026 -0.33500999212265015 0.9089069962501526 -0.41673600673675537 -0.014773000031709671
          0.7427989840507507 -0.6678410172462463 0.04730900004506111 -0.9971060156822205 -0.07135599851608276 -0.02623699977993965
          -0.8860009908676147 -0.392969012260437 0.24612699449062347 0.8169950246810913 -0.5675089955329895 0.10224000364542007
          0.5061219930648804 -0.8035560250282288 0.3132709860801697 0.03241800144314766 -0.8393679857254028 0.5425959825515747
          -0.881505012512207 -0.26489999890327454 0.3908669948577881 -0.3179289996623993 -0.7534970045089722 0.5754680037498474
          -0.12279699742794037 -0.6824910044670105 0.7205039858818054 -0.6811739802360535 -0.376132994890213 0.6281129717826843
          -0.49268901348114014 -0.5575500130653381 0.6681280136108398 -0.18768200278282166 -0.13143500685691833 -0.9733960032463074
          0.26497501134872437 -0.2923789918422699 -0.9188590049743652 -0.9676100015640259 0.20162999629974365 -0.1519079953432083
          -0.9666159749031067 0.25115498900413513 -0.05072899907827377 -0.7865139842033386 0.16779200732707977 -0.594340980052948
          -0.9345059990882874 0.2706950008869171 -0.23113499581813812 0.1578810065984726 -0.040160998702049255 -0.986640989780426
          -0.20795199275016785 0.05506400018930435 -0.9765880107879639 0.3398500084877014 0.1372310072183609 -0.9304140210151672
          0.4371669888496399 -0.02855299971997738 -0.8989269733428955 -0.5389429926872253 0.06231100112199783 -0.8400350213050842
          0.7774940133094788 -0.1781879961490631 -0.6031190156936646 0.8825269937515259 -0.3471750020980835 -0.31720098853111267
          0.9585850238800049 -0.27276700735092163 0.08193200081586838 0.9710310101509094 -0.23894299566745758 0.0022799998987466097
          0.9861000180244446 -0.13389399647712708 -0.09838200360536575 -0.9891250133514404 0.00016500000492669642 0.1470790058374405
          -0.9836350083351135 0.16324299573898315 -0.07625199854373932 0.7927049994468689 -0.5369719862937927 0.28858301043510437
          0.3158769905567169 -0.7132369875907898 0.625711977481842 0.5663920044898987 -0.45598000288009644 0.6865000128746033
          -0.9463139772415161 -0.07169599831104279 0.3151960074901581 -0.7551770210266113 -0.3564029932022095 0.550167977809906
          -0.36601701378822327 -0.5206649899482727 0.7713239789009094 0.3416160047054291 -0.5175930261611938 0.7844709753990173
          -0.9522989988327026 0.28058499097824097 -0.11999800056219101 -0.9741759896278381 0.2253270000219345 -0.014430000446736813
          -0.9715149998664856 0.23645299673080444 0.01577799953520298 -0.9789630174636841 0.19991399347782135 0.040807999670505524
          -0.9327340126037598 0.3433690071105957 -0.11002299934625626 -0.9518129825592041 0.299125999212265 -0.0676409974694252
          -0.41559600830078125 0.27054399251937866 -0.8683810234069824 -0.7153220176696777 0.3736270070075989 -0.5905219912528992
          -0.8661440014839172 0.3766520023345947 -0.3285219967365265 -0.06733699887990952 0.23322400450706482 -0.9700890183448792
          0.14983199536800385 0.272707998752594 -0.950357973575592 0.6514840126037598 0.11156100034713745 -0.750415027141571
          0.7871649861335754 -0.054976001381874084 -0.6142870187759399 0.9239979982376099 -0.06755299866199493 -0.3763830065727234
          0.9068379998207092 -0.07945899665355682 -0.4139209985733032 0.98716801404953 -0.0961259976029396 -0.1275150030851364
          0.918878972530365 -0.2467450052499771 0.30786100029945374 0.917743980884552 -0.21022099256515503 0.33697599172592163
          0.9668459892272949 -0.12653599679470062 -0.2218029946088791 0.9365599751472473 -0.29303500056266785 -0.19231900572776794
          0.9299820065498352 -0.3645470142364502 0.04732900112867355 0.9188870191574097 -0.37465399503707886 0.12362000346183777
          0.8107519745826721 -0.3244929909706116 0.48722100257873535 0.642071008682251 -0.3110859990119934 0.7006919980049133
          -0.890267014503479 -0.2016810029745102 0.40834900736808777 -0.9755529761314392 0.21974800527095795 0.002587999915704131
          -0.9640570282936096 0.013172999955713749 0.2653680145740509 -0.5265100002288818 -0.5536410212516785 0.6451889872550964
          -0.8048049807548523 -0.3230850100517273 0.49790099263191223 0.08554799854755402 -0.5850369930267334 0.8064820170402527
          0.46631601452827454 -0.49091899394989014 0.7358999848365784 0.693107008934021 -0.4116320013999939 0.5917450189590454
          0.5259249806404114 -0.48825201392173767 0.6964290142059326 -0.9772679805755615 0.20679700374603271 -0.0467119999229908
          -0.8880720138549805 0.40466201305389404 -0.21812300384044647 -0.9697920083999634 0.23383399844169617 -0.06947200000286102
          -0.9547200202941895 0.29547399282455444 -0.034703999757766724 -0.5269749760627747 0.2867000102996826 -0.8000630140304565
          -0.7498210072517395 0.4818190038204193 -0.4534519910812378 0.7255190014839172 0.28361499309539795 -0.6270449757575989
          -0.05928000062704086 0.2329999953508377 -0.9706680178642273 0.612483024597168 0.27998900413513184 -0.7392370104789734
          0.9259989857673645 0.11219500005245209 -0.3604690134525299 0.9755210280418396 -0.038474999368190765 -0.21651600301265717
          0.7864189743995667 -0.4538150131702423 0.41904398798942566 0.920540988445282 -0.15146100521087646 -0.3600879907608032
          0.8779100179672241 -0.4627009928226471 0.1232139989733696 0.8619629740715027 -0.10405000299215317 -0.49617800116539
          0.9184250235557556 -0.2758040130138397 -0.2835969924926758 0.9093160033226013 -0.4118260145187378 -0.059526000171899796
          0.8640469908714294 -0.44421300292015076 0.23685100674629211 -0.7020300030708313 -0.22404100000858307 0.6759880185127258
          -0.9406660199165344 0.2106730043888092 0.26601600646972656 -0.8843479752540588 -0.062401000410318375 0.4626390039920807
          -0.46167901158332825 -0.48459699749946594 0.7429800033569336 0.441754013299942 -0.4257020056247711 0.7897030115127563
          -0.058198001235723495 -0.4431009888648987 0.8945810198783875 0.6546930074691772 -0.5194910168647766 0.5490959882736206
          0.7135829925537109 -0.5247200131416321 0.4641849994659424 0.5480830073356628 -0.5597259998321533 0.6215400099754333
          0.1911879926919937 -0.457071989774704 0.8686379790306091 -0.04296699911355972 -0.28890299797058105 0.9563940167427063
          0.07395599782466888 -0.28919699788093567 0.9544079899787903 -0.9668229818344116 0.18117299675941467 -0.18008199334144592
          -0.9784849882125854 0.1732739955186844 -0.11199499666690826 -0.878059983253479 0.3533819913864136 -0.3226949870586395
          -0.8013870120048523 0.5045909881591797 -0.3211959898471832 -0.9955649971961975 0.09373299777507782 -0.008066999725997448
          -0.9621319770812988 0.14610299468040466 0.2301200032234192 -0.9524139761924744 0.30232998728752136 0.038791000843048096
          -0.7077760100364685 0.5668529868125916 -0.42158201336860657 -0.7376919984817505 0.351036012172699 -0.5767019987106323
          -0.10835599899291992 0.4328559935092926 -0.8949270248413086 0.8943179845809937 0.15775400400161743 -0.4186989963054657
          0.6748600006103516 0.2649399936199188 -0.6887459754943848 0.8151000142097473 0.15191300213336945 -0.5590479969978333
          0.42483800649642944 0.44944798946380615 -0.7858179807662964 0.8849620223045349 -0.03136000037193298 -0.46460598707199097
          0.8027970194816589 -0.5179399847984314 0.2953900098800659 0.8991510272026062 -0.4375689923763275 0.00776199996471405
          0.855629026889801 -0.1977050006389618 -0.47834399342536926 0.7292720079421997 0.02512500062584877 -0.6837620139122009
          0.8992419838905334 -0.330375999212265 -0.2867319881916046 -0.6714199781417847 -0.10190500319004059 0.7340369820594788
          -0.6591039896011353 0.22586899995803833 0.7173320055007935 -0.8063889741897583 0.06728599965572357 0.5875449776649475
          0.6362860202789307 -0.6037989854812622 0.4801740050315857 0.2755639851093292 -0.567812979221344 0.7756630182266235
          -0.1500059962272644 -0.02043299935758114 0.9884740114212036 -0.2538500130176544 -0.44341298937797546 0.8596190214157104
          -0.36548998951911926 0.060784999281167984 0.9288280010223389 -0.9022849798202515 0.26983198523521423 -0.3362619876861572
          -0.9863830208778381 0.0872500017285347 -0.1394139975309372 -0.9425259828567505 0.1590079963207245 -0.29387199878692627
          -0.708512008190155 0.5238010287284851 -0.47290998697280884 -0.6481810212135315 0.3912239968776703 -0.6533030271530151
          -0.971992015838623 -0.07389599829912186 0.22309400141239166 -0.9896199703216553 0.08872900158166885 0.11304599791765213
          -0.8712720274925232 -0.12400700151920319 0.4748759865760803 -0.25672200322151184 0.6198469996452332 -0.7415410280227661
          -0.2852660119533539 0.7208600044250488 -0.6316519975662231 0.15153999626636505 0.6540589928627014 -0.7411090135574341
          -0.4630889892578125 0.6884869933128357 -0.5581520199775696 0.45619699358940125 0.30400899052619934 -0.8363379836082458
          0.3266279995441437 0.4667479991912842 -0.8218640089035034 0.8115559816360474 -0.5520650148391724 0.1913129985332489
          0.8833730220794678 -0.45703598856925964 -0.10378099977970123 0.7086660265922546 0.04275200143456459 -0.7042480111122131
          0.6822490096092224 0.07307899743318558 -0.7274580001831055 0.797993004322052 -0.18036699295043945 -0.5750430226325989
          0.6264899969100952 0.04589900001883507 -0.7780770063400269 0.44464701414108276 0.19221900403499603 -0.8748379945755005
          0.882768988609314 -0.3608900010585785 -0.30079299211502075 -0.3702920079231262 -0.00017100000695791095 0.9289150238037109
          -0.5401129722595215 0.17809399962425232 0.8225330114364624 -0.7305570244789124 -0.26075199246406555 0.631106972694397
          0.5478050112724304 -0.6423540115356445 0.5359960198402405 0.6274639964103699 -0.637598991394043 0.44694000482559204
          0.744683027267456 -0.6100689768791199 0.2706719934940338 0.4217900037765503 -0.6303070187568665 0.6517710089683533
          0.5408070087432861 -0.6291760206222534 0.5582699775695801 0 0 1
          0.013996999710798264 -0.5773699879646301 0.8163620233535767 -0.5113480091094971 -0.42048901319503784 0.7494750022888184
          -0.9249089956283569 0.19976599514484406 -0.3234750032424927 -0.7906910181045532 0.3385150134563446 -0.510113000869751
          -0.5218870043754578 0.3610970079898834 -0.7728139758110046 -0.9201369881629944 0.1749120056629181 -0.35036298632621765
          -0.9981499910354614 0.014359000138938427 0.059087999165058136 -0.9993699789047241 0.03233800083398819 -0.014624999836087227
          -0.29188498854637146 0.4333589971065521 -0.8526449799537659 -0.9315670132637024 -0.236967995762825 0.275734007358551
          -0.9039899706840515 -0.16937600076198578 0.3925740122795105 -0.7827979922294617 -0.27104300260543823 0.5601450204849243
          -0.055601999163627625 0.6559780240058899 -0.7527289986610413 0.10625699907541275 0.3957659900188446 -0.9121840000152588
          0.8427379727363586 -0.5336390137672424 0.07086300104856491 0.8723970055580139 -0.43523699045181274 -0.22247099876403809
          0.5408350229263306 0.03723299875855446 -0.8403040170669556 0.7416080236434937 -0.3002299964427948 -0.5998989939689636
          0.7848820090293884 -0.47203299403190613 -0.4014289975166321 0.65071702003479 -0.14927099645137787 -0.7445039749145508
          0.34330999851226807 0.21018999814987183 -0.9154009819030762 0.056724000722169876 0.3030470013618469 -0.9512860178947449
          0.5593760013580322 -0.7041440010070801 0.43735501170158386 0.4489150047302246 -0.6857069730758667 0.5729579925537109
          0.39365801215171814 -0.6337540149688721 0.6658750176429749 0.8460959792137146 -0.5326399803161621 0.020419999957084656
          0.7799249887466431 -0.601980984210968 0.1712760031223297 0.6618340015411377 -0.6779410243034363 0.3199560046195984
          0.7632139921188354 -0.646058976650238 0.010607999749481678 0.1578039973974228 -0.6582059860229492 0.7361130118370056
          0 0 1 -0.27138999104499817 -0.5491809844970703 0.7904099822044373
          -0.751010000705719 -0.3352850079536438 0.5688310265541077 -0.5610619783401489 -0.4339520037174225 0.704908013343811
          -0.9264150261878967 0.29845499992370605 -0.22951999306678772 -0.7951470017433167 0.46973899006843567 -0.3835189938545227
          -0.4371669888496399 0.384568989276886 -0.8130139708518982 -0.6296489834785461 0.50347501039505 -0.5916540026664734
          -0.3045090138912201 0.33364900946617126 -0.892162024974823 -0.9761450290679932 0.17003299295902252 -0.13501699268817902
          -0.9903669953346252 0.0505249984562397 0.12891800701618195 -0.9977840185165405 0.04389600083231926 0.05001100152730942
          -0.10280899703502655 0.3018740117549896 -0.9477880001068115 -0.2738859951496124 0.3328399956226349 -0.9023320078849792
          -0.9709929823875427 0.229994997382164 0.06538199633359909 -0.9436659812927246 0.2157980054616928 0.25085100531578064
          -0.7697309851646423 -0.3357360064983368 0.5429509878158569 -0.915802001953125 0.0006709999870508909 0.4016279876232147
          0.006810000166296959 0.27683699131011963 -0.9608929753303528 0.4887169897556305 -0.020639000460505486 -0.8721979856491089
          0.13123199343681335 0.29965001344680786 -0.9449809789657593 0.6571999788284302 -0.35506999492645264 -0.6648399829864502
          0.6338269710540771 -0.5161629915237427 -0.5760539770126343 0.7150949835777283 -0.48175498843193054 -0.506509006023407
          0.7093129754066467 -0.5708109736442566 -0.41358301043510437 0.6084640026092529 -0.19529500603675842 -0.7691760063171387
          0.6173779964447021 -0.22131699323654175 -0.7548930048942566 0.409498006105423 -0.819657027721405 0.4005909860134125
          0.6239609718322754 -0.7251089811325073 0.29135701060295105 0.20837700366973877 -0.7218350172042847 0.659949004650116
          0.709867000579834 -0.6861209869384766 -0.1591459959745407 0.5403469800949097 -0.8164899945259094 0.20339399576187134
          0.6690379977226257 -0.7432199716567993 0.0033859999384731054 -0.15226100385189056 -0.6412519812583923 0.7520719766616821
          -0.43441298604011536 -0.5236009955406189 0.7328900098800659 -0.7262660264968872 -0.30704501271247864 0.6150299906730652
          -0.9513360261917114 0.2950330078601837 0.08896499872207642 -0.87711101770401 0.41711899638175964 -0.23809200525283813
          -0.683459997177124 0.5318499803543091 -0.5000180006027222 -0.6666169762611389 0.500232994556427 -0.552619993686676
          -0.41342100501060486 0.3621470034122467 -0.83542400598526 -0.4502499997615814 0.39060598611831665 -0.8029339909553528
          -0.6657220125198364 0.6337479948997498 -0.3939259946346283 -0.18258200585842133 0.2885169982910156 -0.9399049878120422
          -0.9131680130958557 0.2780170142650604 0.2980459928512573 -0.8762170076370239 0.34778499603271484 0.3336000144481659
          -0.8986049890518188 0.21546900272369385 0.3822070062160492 0.15887700021266937 -0.029843000695109367 -0.9868469834327698
          -0.1337919980287552 0.24845799803733826 -0.9593579769134521 0.5009030103683472 -0.23309800028800964 -0.8335229754447937
          0.5204650163650513 -0.3247799873352051 -0.7897049784660339 0.49935001134872437 -0.3848330080509186 -0.7762429714202881
          0.6891369819641113 -0.5977010130882263 -0.40968799591064453 0.6774309873580933 -0.5131170153617859 -0.5270659923553467
          0.5856480002403259 -0.3703309893608093 -0.7210209965705872 0.700888991355896 -0.6537309885025024 -0.28529098629951477
          0.742402970790863 -0.567097008228302 -0.35670700669288635 0.8222079873085022 -0.41443100571632385 -0.39015498757362366
          0.5945659875869751 -0.32434698939323425 -0.7357239723205566 0.5735080242156982 -0.4183570146560669 -0.7043200135231018
          0.2507599890232086 -0.799301028251648 0.546110987663269 0.4126729965209961 -0.8153259754180908 0.4061349928379059
          0.3300969898700714 -0.8689540028572083 0.3687190115451813 0.3435789942741394 -0.8138539791107178 0.4686099886894226
          0.40035301446914673 -0.8718690276145935 0.2820659875869751 0.4143419861793518 -0.8782569766044617 0.2387160062789917
          0.3246360123157501 -0.8342369794845581 0.44571301341056824 -0.0920410007238388 -0.7237669825553894 0.6838780045509338
          0.56529301404953 -0.8246840238571167 0.01844399981200695 0.6933320164680481 -0.69651198387146 -0.1848289966583252
          -0.4793109893798828 -0.6487029790878296 0.591139018535614 -0.8762819766998291 0.017463000491261482 0.48148199915885925
          -0.9064069986343384 0.41422200202941895 -0.08274199813604355 -0.9313920140266418 0.3518980145454407 0.09315399825572968
          -0.7800040245056152 0.49643999338150024 -0.3809739947319031 -0.6993470191955566 0.5895180106163025 -0.40420499444007874
          -0.7382270097732544 0.518401026725769 -0.43160301446914673 -0.40709900856018066 0.1750819981098175 -0.8964470028877258
          -0.8009750247001648 0.40362998843193054 -0.44217801094055176 -0.7574880123138428 0.4758799970149994 -0.4469340145587921
          -0.9375699758529663 0.2711560130119324 -0.21780100464820862 -0.9410430192947388 0.22281299531459808 0.2545439898967743
          -0.880545973777771 0.33514299988746643 0.3351390063762665 -0.9235339760780334 0.1375350058078766 0.35800600051879883
          0.2851699888706207 -0.27339500188827515 -0.918658971786499 -0.043303001672029495 -0.12302999943494797 -0.991457998752594
          0.410955011844635 -0.33902499079704285 -0.8462730050086975 0.5074700117111206 -0.4016689956188202 -0.7623230218887329
          0.5384489893913269 -0.17195400595664978 -0.8249269723892212 0.7889090180397034 -0.430651992559433 -0.4383620023727417
          0.7386879920959473 -0.21694500744342804 -0.6381819844245911 0.7802259922027588 -0.5797600150108337 -0.23478899896144867
          0.8928459882736206 -0.40273600816726685 -0.20156699419021606 0.9671980142593384 -0.12997600436210632 -0.2182520031929016
          0.8649309873580933 -0.20605799555778503 -0.45763999223709106 0.9396460056304932 -0.08112499862909317 -0.33239200711250305
          0.5983960032463074 -0.4740560054779053 -0.6459050178527832 0.40828999876976013 -0.45103898644447327 -0.7936390042304993
          0.07259000092744827 -0.8612409830093384 0.5029860138893127 0.3557020127773285 -0.6984559893608093 0.6209949851036072
          0.1431339979171753 -0.91047602891922 0.38800400495529175 0.3616139888763428 -0.5903210043907166 0.7216349840164185
          0.11897800117731094 -0.8551250100135803 0.504584014415741 0.26433899998664856 -0.7239090204238892 0.6372439861297607
          0.31353598833084106 -0.8956360220909119 0.31548699736595154 0.42812201380729675 -0.8728920221328735 0.23403200507164001
          0.25464001297950745 -0.6122130155563354 0.7485679984092712 0.32629498839378357 -0.7282930016517639 0.6025959849357605
          -0.05573900043964386 -0.7511749863624573 0.6577450037002563 -0.16608400642871857 -0.7629269957542419 0.6247869729995728
          0.7267299890518188 -0.6790639758110046 0.10361000150442123 0.7921789884567261 -0.6099349856376648 -0.020779000595211983
          0.7917799949645996 -0.5972769856452942 -0.12784400582313538 -0.6356559991836548 -0.5739489793777466 0.516260027885437
          -0.8773000240325928 -0.2289240062236786 0.4218280017375946 -0.9154649972915649 0.34960201382637024 0.19925600290298462
          -0.894461989402771 0.41685599088668823 0.161764994263649 -0.8453819751739502 0.533191978931427 -0.03216499835252762
          -0.6229310035705566 0.6791139841079712 -0.388280987739563 -0.8372960090637207 0.266525000333786 -0.47738900780677795
          -0.12258899956941605 -0.06720799952745438 -0.9901790022850037 -0.5875110030174255 0.09092599898576736 -0.8040909767150879
          -0.9365270137786865 0.22203600406646729 -0.2713260054588318 -0.8111820220947266 0.5420889854431152 -0.21936999261379242
          -0.9038529992103577 0.37678098678588867 0.20269599556922913 -0.9435129761695862 0.11478900164365768 0.3108150064945221
          -0.9616850018501282 0.22715699672698975 0.15349699556827545 0.1406649947166443 -0.22444100677967072 -0.9642819762229919
          -0.02880300022661686 -0.15045300126075745 -0.9881970286369324 0.5577089786529541 -0.3566789925098419 -0.7494930028915405
          0.5920609831809998 -0.5656530261039734 -0.5740209817886353 0.7516149878501892 0.07116299867630005 -0.6557520031929016
          0.5677719712257385 0.2388319969177246 -0.7877780199050903 0.5928339958190918 0.10107599943876266 -0.7989569902420044
          0.8791229724884033 0.047501999884843826 -0.47422099113464355 0.8657649755477905 -0.4787290096282959 -0.1458439975976944
          0.8983259797096252 -0.4379970133304596 -0.03418999910354614 0.9823970198631287 -0.1721239984035492 -0.07258699834346771
          0.9519360065460205 0.18974000215530396 -0.24045099318027496 0.9833049774169922 0.07031100243330002 -0.16783499717712402
          0.5777729749679565 -0.19392800331115723 -0.7928239703178406 0.6156100034713745 -0.5249459743499756 -0.587755024433136
          0.1839269995689392 -0.06460200250148773 -0.9808149933815002 0.42670801281929016 0.07418300211429596 -0.90134197473526
          -0.1179329976439476 -0.813040018081665 0.5701389908790588 -0.10094600170850754 -0.8795629739761353 0.4649510085582733
          0.3782989978790283 -0.5372999906539917 0.753790020942688 0.2645869851112366 -0.591467022895813 0.7616819739341736
          -0.24706299602985382 -0.7872419953346252 0.5649870038032532 0.3307409882545471 -0.38298600912094116 0.8625149726867676
          -0.09319700300693512 -0.6785079836845398 0.7286570072174072 0.10524599999189377 -0.4762440025806427 0.8729919791221619
          0.33543699979782104 -0.8527479767799377 0.4003779888153076 0.5733789801597595 -0.6983720064163208 0.4283849895000458
          0.7383769750595093 -0.6341400146484375 0.22949199378490448 0.47469601035118103 -0.48029598593711853 0.7375500202178955
          0.3754569888114929 -0.36399200558662415 0.8523740172386169 0.8385339975357056 -0.5211189985275269 0.1590469926595688
          -0.3339860141277313 -0.6960340142250061 0.6356019973754883 -0.990634024143219 0.13334299623966217 0.029388999566435814
          -0.9841200113296509 -0.06916499882936478 0.16347600519657135 -0.586965024471283 -0.49910199642181396 0.6374710202217102
          -0.9238319993019104 -0.13814100623130798 0.35700300335884094 -0.8691210150718689 0.4865669906139374 0.08877500146627426
          -0.8158159852027893 0.5774589776992798 -0.03140300139784813 -0.5273529887199402 0.048523999750614166 -0.8482599854469299
          -0.9358050227165222 0.0947519987821579 -0.33954399824142456 -0.9495700001716614 0.3071489930152893 0.06306499987840652
          -0.7341219782829285 0.6518610119819641 -0.19011199474334717 -0.8429399728775024 0.5328519940376282 0.0742959976196289
          -0.6788089871406555 0.6911150217056274 -0.24815000593662262 -0.922228991985321 0.330935001373291 0.1999419927597046
          -0.8529189825057983 0.49862799048423767 0.15459400415420532 -0.8040019869804382 0.5887579917907715 -0.08332999795675278
          -0.8696349859237671 0.44921401143074036 0.20479600131511688 -0.8404979705810547 0.41956600546836853 0.34282198548316956
          -0.9758309721946716 0.0818910002708435 0.20260000228881836 -0.9898759722709656 0.13496099412441254 0.04393799975514412
          -0.11065500229597092 -0.04863300174474716 -0.9926679730415344 0.6803380250930786 -0.30396100878715515 -0.6668940186500549
          0.7639989852905273 0.5370990037918091 -0.35753199458122253 0.692251980304718 0.4064840078353882 -0.5962870121002197
          0.5350009799003601 0.7272289991378784 -0.4300130009651184 0.42271798849105835 0.5383620262145996 -0.7290239930152893
          0.6674479842185974 0.17850400507450104 -0.722944974899292 0.5259090065956116 0.5251259803771973 -0.6690760254859924
          0.8956850171089172 0.31793901324272156 -0.31090599298477173 0.939486026763916 -0.3389720022678375 -0.04963099956512451
          0.9897739887237549 0.04334799945354462 -0.13590100407600403 0.9947159886360168 -0.09493499994277954 0.039069999009370804
          0.996146023273468 -0.04323599860072136 -0.0763159990310669 0.9181939959526062 0.3621949851512909 -0.16041800379753113
          0.6073439717292786 0.7915760278701782 -0.06738299876451492 -0.06869599968194962 0.1555580049753189 -0.9854350090026855
          0.1464020013809204 0.258078008890152 -0.9549670219421387 0.44095098972320557 0.365774005651474 -0.819616973400116
          0.6472129821777344 0.40143799781799316 -0.648045003414154 -0.2559660077095032 -0.764581024646759 0.5915210247039795
          0.23077599704265594 -0.3725709915161133 0.8988509774208069 0.2959420084953308 -0.34645700454711914 0.8901600241661072
          -0.5484560132026672 -0.4699999988079071 0.6915900111198425 0.2243189960718155 -0.1465580016374588 0.9634320139884949
          0.2182909995317459 -0.24661099910736084 0.9442099928855896 -0.27181899547576904 -0.4900740087032318 0.828216016292572
          -0.19582700729370117 -0.2336840033531189 0.9523879885673523 0.6789370179176331 -0.40091899037361145 0.6150680184364319
          0.49249300360679626 0.051663000136613846 0.8687819838523865 0.40028899908065796 0.40643200278282166 0.8213289976119995
          0.2956869900226593 -0.24151599407196045 0.9242510199546814 0.3807640075683594 0.1870190054178238 0.9055619835853577
          0.8193849921226501 -0.22564199566841125 0.5269669890403748 0.9683910012245178 -0.1710280030965805 0.18157200515270233
          -0.8213130235671997 -0.18390700221061707 0.5400220155715942 -0.993058979511261 0.11459899693727493 0.026477999985218048
          -0.941087007522583 0.17839300632476807 0.28728199005126953 -0.3693409860134125 0.17838899791240692 -0.9120110273361206
          -0.7956169843673706 0.16704800724983215 -0.5823130011558533 -0.6686139702796936 0.32767200469970703 -0.6675230264663696
          -0.913595974445343 0.308243989944458 -0.26519399881362915 -0.9280830025672913 0.34956398606300354 0.12832699716091156
          -0.9342740178108215 0.35639500617980957 -0.010758999735116959 -0.9571290016174316 0.2860789895057678 -0.045419998466968536
          -0.7056970000267029 0.6696100234985352 -0.23154599964618683 -0.8420990109443665 0.5323609709739685 -0.08638200163841248
          -0.9435219764709473 0.3298259973526001 0.031325001269578934 -0.8758460283279419 0.4635019898414612 0.13438700139522552
          -0.8344720005989075 0.5317469835281372 -0.14457400143146515 -0.8347330093383789 0.5350790023803711 -0.13004399836063385
          -0.8304839730262756 0.5201709866523743 0.19929499924182892 -0.8084880113601685 0.588146984577179 0.020740000531077385
          -0.836260974407196 0.47928300499916077 0.26637300848960876 0.3958919942378998 0.9182819724082947 0.005266000051051378
          0.37407800555229187 0.881292998790741 -0.28876999020576477 0.552964985370636 0.7307069897651672 -0.4003719985485077
          0.9671949744224548 0.253589004278183 0.015061000362038612 0.9643830060958862 0.03532399982213974 0.26214200258255005
          0.9103149771690369 0.21989500522613525 0.35067498683929443 0.6130790114402771 0.7899209856987 0.012657999992370605
          0.525177001953125 0.850957989692688 0.007650999817997217 0.25227001309394836 0.9616289734840393 0.1078369989991188
          0.3759549856185913 0.9199110269546509 0.11145299673080444 -0.32646501064300537 0.46449899673461914 -0.8232020139694214