<?xml version="1.0"?>
<VTKFile type="PolyData" version="0.1" byte_order="LittleEndian" header_type="UInt32" compressor="vtkZLibDataCompressor">
  <PolyData>
    <Piece NumberOfPoints="454" NumberOfVerts="0" NumberOfLines="0" NumberOfStrips="0" NumberOfPolys="968">
      <PointData Normals="Normals">
        <DataArray type="Float32" Name="Normals" NumberOfComponents="3" format="ascii" RangeMin="0.9999993674619397" RangeMax="1.0000007582045896">
          0.6791260242462158 -0.05009499937295914 0.7323099970817566 0.4657529890537262 -0.6093490123748779 0.6416910290718079
          0.2865929901599884 -0.946711003780365 -0.1469770073890686 0.31984999775886536 0.5212969779968262 0.7911670207977295
          -0.037450000643730164 0.9091839790344238 0.4147070050239563 0.42150500416755676 0.2004300057888031 0.8843989968299866
          -0.10259599983692169 -0.9492980241775513 -0.29716500639915466 0.43372800946235657 -0.22901800274848938 0.8714529871940613
          -0.5452060103416443 -0.5160229802131653 -0.6606600284576416 -0.6269930005073547 -0.17853499948978424 -0.7582910060882568
          -0.19892099499702454 0.7399389743804932 0.6425889730453491 0.10757499933242798 0.7516980171203613 0.6506749987602234
          -0.6779279708862305 0.6284109950065613 -0.3814609944820404 -0.9807969927787781 0.06398899853229523 -0.18423700332641602
          0.17909599840641022 -0.9429280161857605 0.28073400259017944 0.3387739956378937 0.5989649891853333 0.7255849838256836
          0.40585100650787354 -0.17651300132274628 0.896731972694397 -0.7247869968414307 -0.35993000864982605 -0.5874810218811035
          -0.5114780068397522 -0.5485900044441223 -0.6613919734954834 -0.13110299408435822 -0.9371799826622009 -0.3232719898223877
          0.6248149871826172 -0.7228559851646423 0.2951030135154724 -0.25360798835754395 0.7326560020446777 0.6315829753875732
          -0.4201520085334778 -0.5608839988708496 -0.713358998298645 -0.22961899638175964 0.8387429714202881 -0.4937469959259033
          0 0 1 0.22031700611114502 0.6861960291862488 0.6932500004768372
          -0.20150600373744965 0.9400799870491028 0.27503499388694763 -0.6664010286331177 0.6628779768943787 -0.3413259983062744
          0.5943099856376648 -0.19218100607395172 0.7809360027313232 0.3472380042076111 0.4611780047416687 0.8165420293807983
          0.2107360064983368 0.6280030012130737 0.7491350173950195 0.3702319860458374 -0.8383579850196838 0.40010499954223633
          0.06897900253534317 -0.9929450154304504 0.09644799679517746 -0.31033799052238464 -0.7308080196380615 -0.6079549789428711
          -0.7935450077056885 0.18201500177383423 -0.5806519985198975 -0.1065170019865036 -0.9149670004844666 -0.38921600580215454
          0.17908699810504913 -0.976580023765564 0.11924800276756287 0.4483470022678375 -0.8884000182151794 0.09864500164985657
          0.47004398703575134 0.28227001428604126 0.8362910151481628 0.2681010067462921 0.9271020293235779 -0.2619220018386841
          -0.8190320134162903 -0.26355698704719543 -0.5096309781074524 0.04700300097465515 -0.7044979929924011 -0.7081480026245117
          0.07938999682664871 0.8614490032196045 0.5016000270843506 -0.40251898765563965 0.8794620037078857 0.25401899218559265
          0.17173199355602264 0.7499229907989502 0.6388459801673889 0.289357990026474 0.7558889985084534 0.5872859954833984
          0.6341840028762817 -0.26812100410461426 0.7252050042152405 0.8988659977912903 0.10721199959516525 0.42490699887275696
          -0.09038300067186356 -0.8280349969863892 -0.5533440113067627 -0.3615320026874542 -0.5697879791259766 -0.7379950284957886
          -0.7346109747886658 0.053022000938653946 -0.6764140129089355 -0.08701000362634659 -0.8220930099487305 -0.5626649856567383
          0.4172019958496094 -0.8787569999694824 0.23179399967193604 0.3623639941215515 -0.8655499815940857 -0.34571000933647156
          0.5700110197067261 -0.7760339975357056 0.2699219882488251 -0.11975699663162231 0.4523079991340637 -0.8837850093841553
          0.437967985868454 0.7676339745521545 0.46789199113845825 -0.32646000385284424 0.9446529746055603 -0.03246299922466278
          0.2074189931154251 0.7622060179710388 0.6132050156593323 -0.6607130169868469 0.2208089977502823 -0.7174270153045654
          -0.2882930040359497 -0.1753160059452057 -0.9413560032844543 -0.16131100058555603 0.9761030077934265 -0.14560599625110626
          -0.2817479968070984 0.869521975517273 0.40564799308776855 -0.004517000168561935 0.9619590044021606 -0.27315500378608704
          0.7442700266838074 0.237963005900383 0.6240490078926086 -0.14636899530887604 0.9752479791641235 -0.16573399305343628
          -0.05585600063204765 0.9940720200538635 -0.09327799826860428 0.6775239706039429 0.11891700327396393 0.7258239984512329
          0.5258539915084839 -0.7637310028076172 -0.37442201375961304 -0.05215400084853172 -0.7637230157852173 -0.6434329748153687
          -0.48944801092147827 0.36845698952674866 -0.7903680205345154 -0.3549239933490753 0.11083000153303146 -0.9283030033111572
          -0.7289819717407227 0.06182499974966049 -0.6817349791526794 0.0539809986948967 -0.7533289790153503 -0.6554239988327026
          0.32113298773765564 -0.6637600064277649 -0.6754969954490662 -0.07391099631786346 -0.7803969979286194 -0.6209009885787964
          0.5628730058670044 0.7534949779510498 -0.3397350013256073 0.3491609990596771 -0.35930898785591125 0.8654389977455139
          0.9297530055046082 0.3670940101146698 -0.028310000896453857 0.9689109921455383 -0.24237999320030212 -0.049639999866485596
          0.2150769978761673 0.6709110140800476 0.7096620202064514 0.2334810048341751 0.6464800238609314 0.7263259887695312
          0.2526650130748749 0.8980479836463928 0.3600980043411255 -0.5389829874038696 0.4563100039958954 -0.7080100178718567
          -0.5263630151748657 0.7892079949378967 -0.3163740038871765 -0.24366599321365356 0.3013460040092468 -0.9218549728393555
          -0.003840999910607934 0.9679509997367859 0.2511110007762909 -0.40949898958206177 -0.8083500266075134 -0.42294400930404663
          -0.18028999865055084 0.5958160161972046 -0.7826229929924011 -0.23500999808311462 -0.12773700058460236 -0.9635630249977112
          0.6119149923324585 0.5940880179405212 0.522130012512207 0.4154829978942871 -0.7276819944381714 -0.5457590222358704
          0.0638820007443428 -0.6828240156173706 -0.7277849912643433 0.540278971195221 0.7211139798164368 0.4336960017681122
          -0.6807820200920105 -0.31493499875068665 -0.661325991153717 -0.16972500085830688 0.8605920076370239 0.4801830053329468
          0.3285149931907654 0.2818959951400757 -0.901449978351593 0.7494879961013794 0.23561899363994598 -0.6186699867248535
          -0.3521310091018677 -0.22136999666690826 -0.9093949794769287 0.49929600954055786 0.8638309836387634 -0.0670820027589798
          0.14495199918746948 0.9872469902038574 0.0658160001039505 0.22296999394893646 0.9648060202598572 -0.1394049972295761
          0.38944900035858154 0.9028300046920776 0.18228399753570557 0.2224150002002716 0.7654229998588562 -0.6038699746131897
          -0.31481900811195374 0.025971999391913414 -0.9487959742546082 -0.3336760103702545 -0.4637939929962158 -0.820704996585846
          -0.334879994392395 -0.12724100053310394 -0.9336299896240234 -0.3991659879684448 0.010888000018894672 -0.9168140292167664
          0.056807998567819595 0.9975280165672302 -0.041359998285770416 -0.11974000185728073 0.9927809834480286 0.006891000084578991
          0.060913000255823135 0.8833469748497009 0.4647440016269684 0.5151669979095459 0.7461209893226624 -0.4217889904975891
          0.4476270079612732 0.6079149842262268 -0.655797004699707 -0.16790500283241272 -0.7356820106506348 -0.6561859846115112
          0 0 1 -0.8906599879264832 -0.023632999509572983 0.4540559947490692
          0 0 1 0.38614100217819214 0.894340991973877 -0.225942000746727
          0.43111398816108704 0.8418099880218506 0.3248029947280884 0.20176400244235992 0.8424860239028931 0.49950799345970154
          0.026991000398993492 0.9575600028038025 0.28696900606155396 0.29864799976348877 0.7643290162086487 0.5714989900588989
          -0.3229080140590668 0.7460039854049683 -0.5824170112609863 0.08962099999189377 -0.44746699929237366 -0.8897989988327026
          -0.19688500463962555 -0.6366680264472961 -0.7455800175666809 -0.39444801211357117 -0.4291529953479767 -0.8125510215759277
          -0.4174109995365143 0.6762959957122803 -0.6069530248641968 -0.5630800127983093 0.04766799882054329 -0.8250259757041931
          -0.3441680073738098 0.9298480153083801 -0.13011600077152252 0.45196399092674255 0.8771039843559265 -0.1625320017337799
          0.3260689973831177 0.18623100221157074 -0.9268209934234619 -0.057461000978946686 -0.4257749915122986 -0.9030029773712158
          -0.6346319913864136 -0.7161399722099304 0.2904910147190094 -0.48482099175453186 -0.2215770035982132 0.8460800051689148
          -0.7946760058403015 -0.5972660183906555 -0.10846100002527237 -0.8109139800071716 0.171766996383667 0.5593879818916321
          -0.6022689938545227 0.04295400157570839 0.7971360087394714 -0.86080002784729 -0.42124998569488525 0.2856070101261139
          0.7855449914932251 0.6186559796333313 0.013598999939858913 0.522212028503418 0.7905129790306091 0.31997498869895935
          0.6958420276641846 0.6783379912376404 0.23592700064182281 0.5027419924736023 0.7313039898872375 0.46091699600219727
          0.059331998229026794 0.876118004322052 0.4784319996833801 0.15103699266910553 0.7496410012245178 0.6443809866905212
          -0.2313220053911209 0.96601402759552 0.11535400152206421 0.4379099905490875 0.6376990079879761 0.6337000131607056
          -0.024932000786066055 -0.7737650275230408 -0.63298100233078 -0.05767099931836128 -0.7446650266647339 -0.6649420261383057
          -0.2521589994430542 -0.5427749752998352 -0.801131010055542 -0.15220099687576294 -0.6521649956703186 -0.7426409721374512
          -0.5382429957389832 -0.14485900104045868 -0.8302469849586487 -0.4133859872817993 -0.36996299028396606 -0.8320090174674988
          -0.679839015007019 0.5340179800987244 -0.5026360154151917 -0.725829005241394 0.2224300056695938 -0.6509199738502502
          -0.5594879984855652 0.8227760195732117 -0.10006199777126312 0.8289470076560974 0.07436999678611755 -0.5543609857559204
          0.1508769989013672 -0.6071709990501404 -0.780115008354187 -0.6922919750213623 -0.6608960032463074 0.2897399961948395
          -0.7813839912414551 -0.5587890148162842 0.2778399884700775 -0.8251720070838928 -0.1541520059108734 0.5434409976005554
          -0.7606289982795715 -0.11591199785470963 0.6387550234794617 -0.7070080041885376 -0.6898670196533203 0.15563799440860748
          -0.7796869874000549 -0.31920599937438965 0.5386989712715149 -0.5339210033416748 -0.15137800574302673 0.8318729996681213
          -0.5745499730110168 -0.2336840033531189 0.7843999862670898 -0.7103750109672546 -0.6738809943199158 0.20310500264167786
          -0.657604992389679 -0.48617300391197205 0.5754929780960083 -0.6422600150108337 -0.6932510137557983 0.32696399092674255
          0.9758269786834717 -0.10537199676036835 -0.19146600365638733 0.9769579768180847 0.15288899838924408 0.14892399311065674
          0.7447350025177002 0.4425489902496338 0.4995200037956238 0.11901699751615524 0.7029119729995728 0.7012490034103394
          -0.04195699840784073 0.8444210290908813 0.534034013748169 0.2300640046596527 0.7114530205726624 0.6640070080757141
          0.07549100369215012 0.7494810223579407 0.6577069759368896 0.11618699878454208 0.7690650224685669 0.6285219788551331
          0.05616600066423416 0.7597860097885132 0.647741973400116 0.404574990272522 0.5295220017433167 0.7456049919128418
          0.6925190091133118 0.3162209987640381 0.6484000086784363 0.5835630297660828 0.30940699577331543 0.7508140206336975
          0.39866599440574646 -0.6642019748687744 -0.6323779821395874 0.6020359992980957 -0.6908310055732727 -0.4003809988498688
          0.041815999895334244 -0.8700839877128601 -0.49112701416015625 -0.068682000041008 -0.7613319754600525 -0.6447139978408813
          0.04187199845910072 -0.8600900173187256 -0.508421003818512 -0.1621599942445755 -0.6740220189094543 -0.7206929922103882
          -0.2653149962425232 -0.5623890161514282 -0.7831519842147827 -0.339493989944458 -0.49862799048423767 -0.7975670099258423
          -0.724111020565033 0.2677040100097656 -0.6356080174446106 -0.5451170206069946 -0.07837499678134918 -0.8346880078315735
          -0.6112970113754272 0.025237999856472015 -0.7909989953041077 -0.4306289851665497 -0.3361720144748688 -0.8375840187072754
          -0.35029199719429016 -0.5374420285224915 -0.7671059966087341 -0.5843049883842468 0.7306299805641174 -0.3532249927520752
          -0.5367910265922546 0.8427950143814087 0.039400000125169754 -0.8740339875221252 -0.09291200339794159 0.4768980145454407
          -0.873652994632721 -0.17864499986171722 0.452565997838974 -0.906840980052948 -0.10557900369167328 0.408035010099411
          -0.43916699290275574 0.4959009885787964 0.7491419911384583 -0.4102500081062317 0.4190579950809479 0.8099910020828247
          -0.9572629928588867 -0.14152400195598602 0.2522279918193817 -0.9336389899253845 -0.2274319976568222 0.2767550051212311
          -0.9566760063171387 -0.28409600257873535 0.06371399760246277 -0.9891700148582458 -0.116177998483181 0.08969400078058243
          -0.8421130180358887 -0.5335180163383484 -0.07877100259065628 -0.4132139980792999 -0.5833659768104553 0.6992409825325012
          -0.5429649949073792 -0.35836899280548096 0.7594479918479919 -0.2042189985513687 0.46548599004745483 0.8611720204353333
          -0.4310770034790039 -0.4039509892463684 0.8068439960479736 -0.5195879936218262 -0.48683300614356995 0.7021549940109253
          -0.37794798612594604 -0.4299989938735962 0.8199120163917542 -0.5331929922103882 -0.8164359927177429 0.221670001745224
          -0.31704598665237427 -0.8636580109596252 -0.3918890058994293 -0.3746829926967621 -0.8137270212173462 -0.4443660080432892
          -0.4624919891357422 -0.7578579783439636 -0.46016600728034973 -0.5280389785766602 -0.5055950284004211 0.6823109984397888
          -0.35478299856185913 -0.4097979962825775 0.8403540253639221 0.9474250078201294 -0.1532990038394928 0.2808670103549957
          0.09066300094127655 0.8438420295715332 0.5288770198822021 -0.2336069941520691 0.9525880217552185 0.19494499266147614
          0.12052399665117264 0.7306079864501953 0.6720759868621826 0.21295399963855743 0.6245149970054626 0.7514200210571289
          0.18300500512123108 0.7712159752845764 0.6097000241279602 0.5066279768943787 0.23490500450134277 0.8295469880104065
          0.33208900690078735 0.36625298857688904 0.8692389726638794 0.6821200251579285 -0.022314000874757767 0.73089998960495
          0.7918499708175659 -0.2997409999370575 0.5320990085601807 0.5851749777793884 -0.41692399978637695 0.6955180168151855
          0.4907970130443573 -0.8656049966812134 -0.09922900050878525 0.05507199838757515 -0.9519479870796204 -0.30126699805259705
          0.18533499538898468 -0.9793310165405273 -0.08100099861621857 -0.11358500272035599 -0.7744849920272827 -0.6223120093345642
          0.07534000277519226 -0.8878470063209534 -0.45392999053001404 0.12758299708366394 -0.93858802318573 -0.3205850124359131
          -0.24875999987125397 -0.6563079953193665 -0.7123050093650818 -0.6453279852867126 0.3610509932041168 -0.673196017742157
          -0.5048840045928955 -0.15402500331401825 -0.8493340015411377 -0.5118780136108398 0.0033050000201910734 -0.8590520024299622
          -0.4167119860649109 -0.2852810025215149 -0.8631139993667603 -0.3279869854450226 -0.528128981590271 -0.7832649946212769
          -0.24546599388122559 -0.6658390164375305 -0.7045599818229675 -0.5134400129318237 0.8138970136642456 -0.2719390094280243
          -0.5372539758682251 0.47578200697898865 0.6964120268821716 -0.46012601256370544 0.5475599765777588 0.6989009976387024
          -0.9227340221405029 -0.01296900026500225 0.385219007730484 -0.6483449935913086 0.32550498843193054 0.6882550120353699
          -0.04051800072193146 0.68402498960495 0.728331983089447 0.06392200291156769 0.7192869782447815 0.6917660236358643
          -0.8354009985923767 -0.39122098684310913 -0.3860720098018646 -0.9195359945297241 -0.33180299401283264 -0.21061700582504272
          -0.9773309826850891 0.1414330005645752 -0.1575479954481125 -0.8279520273208618 -0.16612400114536285 -0.5356289744377136
          -0.6635010242462158 -0.3906869888305664 -0.6380680203437805 -0.5147680044174194 -0.6233869791030884 -0.5885599851608276
          -0.09636999666690826 0.3522230088710785 0.9309409856796265 -0.0975790023803711 0.2728700041770935 0.9570900201797485
          0.07105600088834763 0.6656439900398254 0.7428789734840393 -0.28957799077033997 -0.917041003704071 0.2741909921169281
          -0.34442999958992004 -0.5244969725608826 0.7786340117454529 -0.3322019875049591 -0.7407510280609131 0.5838919878005981
          -0.20685799419879913 -0.7656779885292053 0.6090540289878845 -0.22257600724697113 -0.9228129982948303 0.31444498896598816
          -0.24955299496650696 -0.9089379906654358 -0.3339979946613312 0.00031400000443682075 -0.7588000297546387 -0.6513239741325378
          -0.13488799333572388 -0.7543950080871582 -0.642412006855011 -0.18118500709533691 -0.7109469771385193 -0.6795039772987366
          -0.2376900017261505 -0.6242610216140747 -0.7441790103912354 -0.3014970123767853 -0.11385899782180786 0.9466450214385986
          -0.0012240000069141388 -0.10339199751615524 0.9946399927139282 0.03829599916934967 0.2958329916000366 0.954472005367279
          0.054575998336076736 0.9076359868049622 0.41619399189949036 0.18034900724887848 0.8128200173377991 0.5538939833641052
          -0.13003699481487274 0.9819149971008301 0.137595996260643 -0.43203800916671753 0.869629979133606 -0.23892900347709656
          0.23696200549602509 0.43327099084854126 0.8695549964904785 0.203248992562294 0.6830189824104309 0.7015519738197327
          0.18679900467395782 0.688368022441864 0.7008960247039795 0.34474799036979675 0.5255470275878906 0.7777850031852722
          0.35659700632095337 0.6454359889030457 0.6754630208015442 0.3124679923057556 0.046633001416921616 0.9487829804420471
          0.46940499544143677 -0.20662200450897217 0.8584679961204529 0.5759570002555847 -0.6445429921150208 0.5028300285339355
          0.5152000188827515 -0.7993320226669312 0.309253990650177 0.28832700848579407 -0.9523789882659912 0.09921000152826309
          0.3536199927330017 -0.44263800978660583 0.8240290284156799 0.3218640089035034 -0.8744009733200073 0.3630790114402771
          0.15648800134658813 -0.9733369946479797 -0.16771100461483002 0.08883800357580185 -0.9190840125083923 -0.3839159905910492
          -0.13540099561214447 -0.7847999930381775 -0.6047769784927368 0.19347399473190308 -0.9432510137557983 -0.269897997379303
          0.17068199813365936 -0.9463639855384827 -0.27434098720550537 -0.4315960109233856 0.808256983757019 -0.4005570113658905
          -0.4842880070209503 0.33506301045417786 -0.8082069754600525 -0.45844200253486633 -0.08018399775028229 -0.8851000070571899
          -0.2629530131816864 -0.6383339762687683 -0.7234539985656738 -0.13309800624847412 -0.7751219868659973 -0.6176329851150513
          -0.5058469772338867 0.017402000725269318 -0.8624470233917236 -0.23106099665164948 -0.510325014591217 -0.8283600211143494
          -0.2991139888763428 -0.2548559904098511 -0.9195539951324463 -0.1933560073375702 0.6388069987297058 0.744674026966095
          -0.6540669798851013 0.6170399785041809 0.43755999207496643 -0.6378530263900757 0.3509869873523712 0.6855310201644897
          -0.2519960105419159 0.6460000276565552 0.7205430269241333 0.14590799808502197 0.6822029948234558 0.7164570093154907
          -0.017000999301671982 0.7534180283546448 0.6573219895362854 0.11948399990797043 0.7112799882888794 0.6926789879798889
          0.14588700234889984 0.8168519735336304 0.5580940246582031 0.15220299363136292 0.8053650259971619 0.5729060173034668
          0.2511259913444519 0.6512280106544495 0.7161269783973694 -0.6188160181045532 -0.34801000356674194 -0.7042409777641296
          -0.42194101214408875 -0.5069770216941833 -0.7516250014305115 -0.852512001991272 -0.16108599305152893 -0.4972670078277588
          -0.693822979927063 0.03335700184106827 -0.7193719744682312 -0.588392972946167 0.807856023311615 0.03410499915480614
          -0.8109530210494995 0.42431899905204773 -0.40287598967552185 -0.3209719955921173 -0.20658600330352783 -0.9242830276489258
          -0.4395729899406433 -0.2122649997472763 -0.8727650046348572 -0.28472501039505005 -0.4260129928588867 -0.8587459921836853
          -0.38694098591804504 -0.21094100177288055 -0.8976529836654663 -0.19066600501537323 -0.508072018623352 -0.8399459719657898
          0.08442699909210205 0.7041839957237244 0.7049810290336609 0.17340199649333954 0.7261049747467041 0.6653590202331543
          0.10350099951028824 0.6274750232696533 0.7717270255088806 0.004466999787837267 -0.938435971736908 -0.345425009727478
          -0.102852001786232 -0.901515007019043 -0.42034798860549927 -0.13946400582790375 -0.8584910035133362 0.4935010075569153
          0.16597799956798553 -0.4130280017852783 0.8954660296440125 0.007931999862194061 -0.0006360000115819275 0.9999679923057556
          0.10738900303840637 -0.9867370128631592 0.12172800302505493 0.026827000081539154 -0.999243974685669 0.028126999735832214
          0.029085999354720116 -0.9246950149536133 -0.379597008228302 0.13811999559402466 -0.792855978012085 -0.5935500264167786
          0.07239600270986557 -0.6037110090255737 -0.7939090132713318 0.2583630084991455 -0.6559960246086121 -0.7091670036315918
          -0.0313199982047081 0.24428600072860718 0.9691969752311707 0.09359300136566162 0.3956890106201172 0.9136030077934265
          0.013175000436604023 0.9292939901351929 0.3691059947013855 0.3757309913635254 0.6367340087890625 0.673346996307373
          0.08737699687480927 0.8884069919586182 0.4506640136241913 0.24873000383377075 0.753741979598999 0.6082810163497925
          -0.049894001334905624 0.9867249727249146 0.15454499423503876 0.5567179918289185 -0.21202200651168823 0.8031880259513855
          0.4731059968471527 0.4389039874076843 0.7638940215110779 0.45299699902534485 0.5164890289306641 0.7266589999198914
          0.34967899322509766 -0.9359679818153381 0.041085999459028244 0.08568300306797028 -0.9638310074806213 -0.25236600637435913
          0.22092300653457642 -0.9463260173797607 -0.23592500388622284 0.3799090087413788 -0.9239969849586487 0.04357900097966194
          -0.023182999342679977 -0.9836040139198303 -0.17884500324726105 -0.30601799488067627 0.8710619807243347 -0.38419198989868164
          -0.3600260019302368 0.6548150181770325 -0.664529025554657 -0.3815000057220459 -0.0057230000384151936 -0.9243509769439697
          -0.34976300597190857 0.4564949870109558 -0.81809401512146 0.19116400182247162 -0.902305006980896 -0.38639700412750244
          0.020157000049948692 -0.7851409912109375 -0.6189889907836914 -0.060610998421907425 -0.5749409794807434 -0.8159469962120056
          -0.1520339995622635 -0.17560100555419922 -0.9726510047912598 -0.14299599826335907 -0.3037160038948059 -0.9419710040092468
          -0.2644580006599426 0.9059000015258789 0.3307670056819916 -0.2925719916820526 0.7925469875335693 0.5350440144538879
          -0.058841999620199203 0.8880670070648193 0.45593199133872986 0.3002150058746338 0.7264580130577087 0.6181660294532776
          0.06878899782896042 0.891910970211029 0.44694799184799194 0.19244299829006195 0.8467180132865906 0.4960179924964905
          0.06263899803161621 0.9808520078659058 0.18440699577331543 0.2823469936847687 0.6965159773826599 0.6596559882164001
          0.2817560136318207 0.7319989800453186 0.6203160285949707 0.2210869938135147 0.8118370175361633 0.5404080152511597
          0.24335800111293793 0.7578269839286804 0.6053720116615295 -0.5447220206260681 0.2714329957962036 -0.7934749722480774
          -0.1515759974718094 0.01774900034070015 -0.988286018371582 -0.061670999974012375 0.9966560006141663 -0.053612999618053436
          -0.5193399786949158 0.6360849738121033 -0.5706850290298462 -0.2571440041065216 0.8931159973144531 -0.3690820038318634
          -0.07567699998617172 -0.28624600172042847 -0.9551630020141602 -0.07825399935245514 -0.23880499601364136 -0.9679089784622192
          -0.1174900010228157 -0.24792100489139557 -0.9616299867630005 -0.018578000366687775 -0.3626280128955841 -0.9317489862442017
          0.016822999343276024 -0.44026198983192444 -0.897711992263794 0.3178809881210327 0.6854150295257568 0.655102014541626
          0.28037500381469727 0.7490670084953308 0.6002399921417236 0.2573379874229431 0.8096489906311035 0.5274900197982788
          0.29433101415634155 0.7430179715156555 0.6010770201683044 0.23092800378799438 0.6550719738006592 0.7194120287895203
          0.22768500447273254 0.4606199860572815 0.8578979969024658 0.3023880124092102 -0.8573619723320007 -0.4165230095386505
          0.2505649924278259 -0.854295015335083 0.4554089903831482 0.051750000566244125 -0.9679059982299805 0.24592599272727966
          0.11162900179624557 -0.9792159795761108 -0.16933700442314148 0.5552210211753845 -0.38871100544929504 0.7352780103683472
          0.22238600254058838 0.18245600163936615 0.9577339887619019 0.43772101402282715 0.1090250015258789 0.8924760222434998
          0.3426609933376312 -0.7365829944610596 -0.5831199884414673 0.3340669870376587 -0.6568830013275146 -0.6759470105171204
          0.1973319947719574 -0.6818529963493347 -0.7043700218200684 0.36312898993492126 -0.6923649907112122 -0.6235129833221436
          0.2773909866809845 -0.7180060148239136 -0.6383739709854126 0.5880680084228516 0.39465001225471497 0.7059940099716187
          0.5403879880905151 0.5205649733543396 0.6610550284385681 0.3002699911594391 0.7048919796943665 0.642624020576477
          0.19133199751377106 0.8228269815444946 0.5351150035858154 -0.03396400064229965 0.9949489831924438 0.09445799887180328
          0.19532200694084167 0.8985810279846191 0.3929390013217926 0.6117429733276367 0.17662300169467926 0.7710859775543213
          0.6412429809570312 -0.5109019875526428 0.5725259780883789 0.5849419832229614 -0.6910319924354553 0.4246380031108856
          0.3663249909877777 -0.9304869771003723 0.00034100000630132854 0.21133999526500702 -0.9583950042724609 -0.1918720006942749
          0.5496159791946411 -0.7963380217552185 0.2525230050086975 -0.23527100682258606 0.8855760097503662 -0.400503009557724
          -0.11646299809217453 0.27828800678253174 -0.9534109830856323 -0.12013500183820724 0.8036609888076782 -0.582834005355835
          0.4587959945201874 -0.8858129978179932 0.06958500295877457 0.5440009832382202 -0.8387069702148438 -0.02515299990773201
          0.3687930107116699 -0.8774769902229309 -0.3066369891166687 0.20003999769687653 -0.7982119917869568 -0.5681909918785095
          0.3813520073890686 -0.8447890281677246 -0.37536999583244324 0.05990299955010414 -0.7547990083694458 -0.6532149910926819
          -0.019047999754548073 -0.05919700115919113 -0.9980649948120117 0.09652099758386612 0.9813129901885986 0.16645699739456177
          0.08333200216293335 0.9645839929580688 -0.2502659857273102 -0.2457900047302246 0.3653169870376587 -0.8978480100631714
          -0.03715600073337555 0.24084100127220154 -0.9698529839515686 -0.04740599915385246 0.6546409726142883 -0.7544519901275635
          0.08102499693632126 0.8820629715919495 -0.4641120135784149 0.6161199808120728 0.6127430200576782 0.49491599202156067
          0.4225330054759979 0.6344950199127197 0.6472110152244568 0.43669599294662476 0.48235198855400085 0.7593629956245422
          0.7518770098686218 -0.6003080010414124 0.27260199189186096 0.3063400089740753 -0.9497060179710388 -0.06491299718618393
          0.5512189865112305 -0.8284109830856323 0.09946499764919281 0.41383200883865356 -0.720674991607666 -0.5562099814414978
          0.5656399726867676 0.17125600576400757 0.8066740036010742 0.7292659878730774 -0.07470600306987762 0.6801400184631348
          0.4592610001564026 -0.6412069797515869 -0.614762008190155 0.6033660173416138 0.21148699522018433 0.7689099907875061
          0.6925609707832336 0.23943600058555603 0.6804630160331726 0.7996029853820801 -0.15846499800682068 0.5792440176010132
          0.8383060097694397 0.11978200078010559 0.5318800210952759 0.750557005405426 0.3867399990558624 0.5358139872550964
          -0.048245999962091446 0.9978479743003845 -0.04440300166606903 0.7032179832458496 -0.5192009806632996 0.4857099950313568
          0.577489972114563 -0.7665280103683472 0.2809610068798065 0.5335100293159485 -0.8395460247993469 0.10260900110006332
          0.6701539754867554 -0.7421330213546753 -0.011494999751448631 0.6886669993400574 -0.667514979839325 -0.2831270098686218
          0.6713640093803406 0.5725669860839844 0.47057199478149414 0.8005629777908325 0.36671900749206543 0.4739370048046112
          0.9783120155334473 -0.16509999334812164 0.12508800625801086 0.8427469730377197 -0.49676498770713806 -0.20736999809741974
          0.6743990182876587 -0.6436470150947571 -0.36180800199508667 0.8418390154838562 -0.4567570090293884 0.2875399887561798
          0.9798949956893921 -0.08980900049209595 0.1781570017337799 0.8658829927444458 -0.35698801279067993 -0.3504369854927063
          <InformationKey name="L2_NORM_RANGE" location="vtkDataArray" length="2">
            <Value index="0">
              0.99999936746
            </Value>
            <Value index="1">
              1.0000007582
            </Value>
          </InformationKey>
        </DataArray>
      </PointData>
      <CellData>
      </CellData>
      <Points>
        <DataArray type="Float32" Name="Points" NumberOfComponents="3" format="ascii" RangeMin="0.08490506401168263" RangeMax="0.08983669648815636">