<?xml version="1.0"?>
<VTKFile type="PolyData" version="0.1" byte_order="LittleEndian" header_type="UInt32" compressor="vtkZLibDataCompressor">
  <PolyData>
    <Piece NumberOfPoints="1877" NumberOfVerts="0" NumberOfLines="0" NumberOfStrips="0" NumberOfPolys="3770">
      <PointData Normals="Normals">
        <DataArray type="Float32" Name="Normals" NumberOfComponents="3" format="ascii" RangeMin="0.9999992604579387" RangeMax="1.0000007581188983">
          0.8976250290870667 0.4010449945926666 0.18284599483013153 0.8763939738273621 0.470429003238678 0.10310299694538116
          0.8720549941062927 0.48543301224708557 0.062240999191999435 0.9145860075950623 0.381291002035141 0.13472500443458557
          0.9008870124816895 0.39920300245285034 0.17041100561618805 0.8972160220146179 0.3224659860134125 0.30169400572776794
          0.9040949940681458 0.3584960103034973 0.23257899284362793 0.9124040007591248 0.3386940062046051 0.22979499399662018
          0.8749480247497559 0.4834060072898865 -0.028012000024318695 0.8932899832725525 0.4449569880962372 0.0636110007762909
          0.8790619969367981 0.47330600023269653 -0.056853000074625015 0.8961520195007324 0.4419940114021301 0.039399001747369766
          0.8965179920196533 0.44080600142478943 0.04411400109529495 0.9151880145072937 0.327921986579895 0.23430299758911133
          0.9150559902191162 0.40255001187324524 0.025025999173521996 0.904600977897644 0.3368139863014221 0.2612540125846863
          0.8982880115509033 0.30071601271629333 0.3203890025615692 0.9161180257797241 0.3986949920654297 0.04208200052380562
          0.9018239974975586 0.42887699604034424 0.052712999284267426 0.8847659826278687 0.43701401352882385 0.16189000010490417
          0.8997970223426819 0.36916300654411316 0.23255999386310577 0.8855640292167664 0.2623400092124939 0.38334599137306213
          0.8928449749946594 0.24694499373435974 0.37662601470947266 0.902845025062561 0.2756739854812622 0.32996198534965515
          0.8685470223426819 0.48933300375938416 -0.07860399782657623 0.8706459999084473 0.4897859990596771 -0.045653000473976135
          0.8876910209655762 0.4573720097541809 0.05306899920105934 0.891871988773346 0.40179601311683655 0.20766399800777435
          0.8532099723815918 0.5039759874343872 -0.13431699573993683 0.8697130084037781 0.4735020101070404 -0.13926400244235992
          0.8993639945983887 0.43540599942207336 -0.03957600146532059 0.8796380162239075 0.4711560010910034 -0.0651869997382164
          0.8773819804191589 0.4796209931373596 0.01281800027936697 0.8759679794311523 0.4804939925670624 -0.04249599948525429
          0.8798289895057678 0.47148799896240234 0.06000300124287605 0.9038490056991577 0.26533299684524536 0.3356409966945648
          0.892458975315094 0.296658992767334 0.3398669958114624 0.9091839790344238 0.28159299492836 0.30674099922180176
          0.8852570056915283 0.26390400528907776 0.3829819858074188 0.887362003326416 0.3625960052013397 0.28480398654937744
          0.873993992805481 0.21276700496673584 0.43688100576400757 0.8669930100440979 0.1986590027809143 0.4570100009441376
          0.885263979434967 0.46189799904823303 -0.054388001561164856 0.8712630271911621 0.4894750118255615 -0.03626000136137009
          0.8680999875068665 0.4899739921092987 -0.07954200357198715 0.8588240146636963 0.4221149981021881 0.2902419865131378
          0.8078110218048096 0.5866469740867615 0.05732500180602074 0.8302469849586487 0.5407739877700806 0.1351030021905899
          0.891336977481842 0.33625099062919617 0.30406299233436584 0.8133379817008972 0.17607000470161438 0.5545099973678589
          0.8306990265846252 0.23148199915885925 0.5063160061836243 0.8682129979133606 0.28945401310920715 0.4030179977416992
          0.8729280233383179 0.15433700382709503 0.4627920091152191 0.8184030055999756 0.12018399685621262 0.5619360208511353
          0.8979989886283875 0.25668901205062866 0.3573629856109619 0.8778759837150574 0.19021399319171906 0.43949100375175476
          0.8333979845046997 0.5278699994087219 -0.16370999813079834 0.8748400211334229 0.4829849898815155 -0.03714900091290474
          0.8897510170936584 0.4342159926891327 0.14070899784564972 0.8790810108184814 0.3702790141105652 0.3001829981803894
          0.8856639862060547 0.4167819917201996 0.20467700064182281 0.7937859892845154 0.546629011631012 -0.26664501428604126
          0.8162710070610046 0.5198130011558533 -0.25198400020599365 0.8098310232162476 0.5016419887542725 -0.30418598651885986
          0.7920439839363098 0.5072550177574158 -0.33964499831199646 0.8693540096282959 0.4755080044269562 -0.1345980018377304
          0.8102160096168518 0.5414379835128784 -0.2244880050420761 0.8521010279655457 0.512732982635498 -0.10501399636268616
          0.8761879801750183 0.4814229905605316 0.02296599932014942 0.8870800137519836 0.4616059958934784 -0.003089000005275011
          0.8815839886665344 0.46692898869514465 0.06919000297784805 0.8304439783096313 0.14277799427509308 0.5384950041770935
          0.8071879744529724 0.2420089989900589 0.5384039878845215 0.8517659902572632 0.2877599895000458 0.43782299757003784
          0.797806978225708 0.18142199516296387 0.574970006942749 0.8232269883155823 0.33904701471328735 0.45535099506378174
          0.7352579832077026 0.08743300288915634 0.6721240282058716 0.8151410222053528 0.035530999302864075 0.5781720280647278
          0.7923359870910645 0.07645200192928314 0.6052759885787964 0.8483930230140686 0.5276449918746948 -0.042660001665353775
          0.8688840270042419 0.4948509931564331 -0.012751000002026558 0.7521299719810486 0.5264869928359985 0.3963730037212372
          0.7369840145111084 0.6013659834861755 0.30856698751449585 0.8071860074996948 0.5901780128479004 0.011827999725937843
          0.7791560292243958 0.6202139854431152 0.09083499759435654 0.7905579805374146 0.6107239723205566 0.045097000896930695
          0.8235160112380981 0.5340759754180908 0.1912669986486435 0.8091260194778442 0.5816389918327332 0.08373299986124039
          0.6790379881858826 0.05406399816274643 0.732109010219574 0.5918030142784119 -0.07700899988412857 0.8023959994316101
          0.8732770085334778 0.3199940025806427 0.3674109876155853 0.8758599758148193 0.30253300070762634 0.3759559988975525
          0.8264790177345276 0.22492200136184692 0.5160840153694153 0.8214010000228882 0.08183900266885757 0.5644490122795105
          0.6202399730682373 -0.08158499747514725 0.7801579833030701 0.8057420253753662 0.06668700277805328 0.5885000228881836
          0.7520509958267212 0.5391319990158081 -0.37915199995040894 0.7763389945030212 0.5470319986343384 -0.3131349980831146
          0.8892620205879211 0.43788400292396545 0.13218000531196594 0.8737729787826538 0.4863330125808716 -0.0001740000006975606
          0.8017820119857788 0.5509989857673645 -0.2313999980688095 0.8911269903182983 0.35404500365257263 0.2838050127029419
          0.5929170250892639 0.5558570027351379 -0.5826420187950134 0.6462389826774597 0.5243629813194275 -0.5544530153274536
          0.7489510178565979 0.5034549832344055 -0.4308199882507324 0.6127449870109558 0.4838370084762573 -0.6248570084571838
          0.697987973690033 0.5429390072822571 -0.46693599224090576 0.8068000078201294 0.5639960169792175 -0.1760150045156479
          0.6105210185050964 0.686369001865387 -0.39517301321029663 0.8343570232391357 0.5440409779548645 -0.0887020006775856
          0.8404150009155273 0.5419009923934937 0.0068350001238286495 0.7331529855728149 0.16506700217723846 0.6597269773483276
          0.6852830052375793 0.43740999698638916 0.5822880268096924 0.6258320212364197 0.25675898790359497 0.7364850044250488
          0.6105930209159851 -0.0605660006403923 0.7896249890327454 0.5900110006332397 -0.04235599935054779 0.8062829971313477
          0.6467099785804749 0.003421999979764223 0.7627279758453369 0.6547629833221436 -0.12740400433540344 0.7450190186500549
          0.6429299712181091 -0.14718499779701233 0.7516499757766724 0.776557981967926 0.6166769862174988 -0.12910600006580353
          0.742393970489502 0.645251989364624 -0.1802780032157898 0.5554569959640503 0.6125349998474121 0.5623779892921448
          0.5272610187530518 0.726177990436554 0.4412049949169159 0.6954209804534912 0.6940230131149292 0.18633800745010376
          0.5047029852867126 0.7906180024147034 0.34669598937034607 0.7622159719467163 0.6463639736175537 0.03520200029015541
          0.7558950185775757 0.6516100168228149 -0.06346199661493301 0.7981770038604736 0.6023460030555725 0.009665999561548233
          0.7153159976005554 0.6988009810447693 -0.00021699999342672527 0.7877730131149292 0.6157400012016296 0.01668900065124035
          0.7257739901542664 0.05441800132393837 0.6857770085334778 0.7981879711151123 0.14201700687408447 0.5854290127754211
          0.4415909945964813 -0.10710600018501282 0.8908010125160217 0.626908004283905 -0.030000999569892883 0.7785149812698364
          0.8855540156364441 0.3304699957370758 0.3264720141887665 0.8831740021705627 0.3356339931488037 0.32764801383018494
          0.8780980110168457 0.3187420070171356 0.3568570017814636 0.8178690075874329 0.19929000735282898 0.5397899746894836
          0.7574549913406372 -0.0471160002052784 0.6511849761009216 0.511722981929779 -0.21627399325370789 0.8314840197563171
          0.6960139870643616 -0.10686200112104416 0.7100319862365723 0.6121969819068909 0.574226975440979 -0.5435799956321716
          0.48170700669288635 0.5621169805526733 -0.6722959876060486 0.8903970122337341 0.4308930039405823 0.14671100676059723
          0.8720430135726929 0.4892379939556122 -0.01370299980044365 0.8357639908790588 0.5228279829025269 -0.16777700185775757
          0.6867750287055969 0.5600069761276245 -0.4633910059928894 0.6774500012397766 0.5680130124092102 -0.4673579931259155
          0.8822420239448547 0.35541900992393494 0.3087500035762787 0.46027401089668274 0.5271540284156799 -0.7143229842185974
          0.3764849901199341 0.3984139859676361 -0.8363760113716125 0.6086310148239136 0.45494401454925537 -0.6500719785690308
          0.5868200063705444 0.45535799860954285 -0.6695460081100464 0.6338750123977661 0.591946005821228 -0.49779799580574036
          0.6408339738845825 0.6924340128898621 -0.33146199584007263 0.47369900345802307 0.7101590037345886 -0.5208479762077332
          0.6648489832878113 0.15911400318145752 0.7298340201377869 0.5161949992179871 0.44745999574661255 0.7302889823913574
          0.5377579927444458 0.21438400447368622 0.8153870105743408 0.3038310110569 0.21126900613307953 0.9290059804916382
          0.4082399904727936 0.30620700120925903 0.8599870204925537 0.49211299419403076 -0.09560400247573853 0.8652660250663757
          0.617717981338501 -0.11112800240516663 0.7785080075263977 0.5056830048561096 -0.2323479950428009 0.8308420181274414
          0.679053008556366 0.0744210034608841 0.7303069829940796 0.5758159756660461 0.052754998207092285 0.8158760070800781
          0.3997800052165985 -0.36256301403045654 0.8418580293655396 0.3818880021572113 -0.3466069996356964 0.8567529916763306
          0.35748401284217834 -0.3246690034866333 0.875669002532959 0.652059018611908 0.7027909755706787 -0.2844359874725342
          0.5318390130996704 0.7705680131912231 -0.3512429893016815 0.6110849976539612 0.7634760141372681 -0.2089959979057312
          0.34306401014328003 0.7477319836616516 0.5685099959373474 0.6248720288276672 0.7718520164489746 0.11738800257444382
          0.36956098675727844 0.8796769976615906 0.2993220090866089 0.2981550097465515 0.8524619936943054 0.4294320046901703
          0.6770600080490112 0.7317789793014526 -0.07803499698638916 0.6695700287818909 0.7407630085945129 -0.05428599938750267
          0.4756529927253723 0.8770490288734436 0.06737499684095383 0.29150500893592834 -0.26968100666999817 0.9177669882774353
          0.37533000111579895 -0.24181100726127625 0.8947929739952087 0.4104749858379364 -0.11816299706697464 0.9041839838027954
          0.6201580166816711 -0.04434699937701225 0.7832229733467102 0.7544050216674805 0.09814900159835815 0.6490300297737122
          0.8897380232810974 0.3662790060043335 0.27240899205207825 0.8838139772415161 0.3897069990634918 0.2588469982147217
          0.888139009475708 0.4188860058784485 0.18905800580978394 0.8565239906311035 0.28230300545692444 0.4320549964904785
          0.8047320246696472 0.20719200372695923 0.5563070178031921 0.7418959736824036 0.09149900078773499 0.6642420291900635
          0.7820330262184143 0.13936099410057068 0.6074560284614563 0.6194999814033508 -0.20789499580860138 0.7569670081138611
          0.5034180283546448 -0.14748600125312805 0.8513630032539368 0.3378649950027466 0.5597100257873535 -0.7566850185394287
          0.2173510044813156 0.5101370215415955 -0.8321769833564758 0.3130840063095093 0.4849550127983093 -0.8165760040283203
          0.8905220031738281 0.4544920027256012 0.020200999453663826 0.8984789848327637 0.4167340099811554 0.13808700442314148
          0.8755689859390259 0.47733598947525024 -0.07436200231313705 0.37214601039886475 0.5570440292358398 -0.7424349784851074
          0.34992098808288574 0.5476229786872864 -0.7600420117378235 0.6867780089378357 0.5494809746742249 -0.47582200169563293
          0.7910199761390686 0.5158140063285828 -0.3289729952812195 0.8443629741668701 0.4943529963493347 -0.20655900239944458
          0.20812100172042847 0.4383009970188141 -0.8744019865989685 0.18309499323368073 0.4103350043296814 -0.8933650255203247
          0.5323989987373352 0.5705819725990295 -0.6252899765968323 0.32239601016044617 0.8008549809455872 -0.5046709775924683
          0.30548200011253357 0.7992950081825256 -0.5175020098686218 0.3479349911212921 0.6618170142173767 -0.6640329957008362
          0.3093859851360321 0.7729970216751099 -0.5538560152053833 0.5345609784126282 0.12683700025081635 0.8355579972267151
          0.29748401045799255 0.11414100229740143 0.9478790163993835 0.392643004655838 0.5907139778137207 0.7049030065536499
          0.14666399359703064 0.17065900564193726 0.9743540287017822 0.3785359859466553 -0.23256400227546692 0.8958929777145386
          0.3393779993057251 -0.3593139946460724 0.8693199753761292 0.5596219897270203 -0.15929299592971802 0.8132950067520142
          0.2649250030517578 -0.47092700004577637 0.8414530158042908 0.32676300406455994 -0.3362399935722351 0.8832709789276123
          0.5311340093612671 -0.057374000549316406 0.8453429937362671 0.19088099896907806 -0.5103200078010559 0.8385329842567444
          0.2553980052471161 -0.4600690007209778 0.8503580093383789 0.1842159926891327 -0.39417800307273865 0.9003819823265076
          0.1318259984254837 -0.48492100834846497 0.8645660281181335 0.10945799946784973 -0.4495429992675781 0.8865270018577576
          0.178724005818367 -0.4894939959049225 0.8534950017929077 0.30098599195480347 0.8507959842681885 -0.430759996175766
          0.43230000138282776 0.8322160243988037 -0.34717801213264465 0.549239993095398 0.8219320178031921 -0.15087300539016724
          0.2609280049800873 0.7631189823150635 0.5912410020828247 0.20679399371147156 0.8425430059432983 0.4973500072956085
          0.3950670063495636 0.9023839831352234 0.17212000489234924 0.45670899748802185 0.8895959854125977 -0.006031999830156565
          0.27560898661613464 0.9417920112609863 0.19253000617027283 0.155690997838974 -0.26468798518180847 0.951682984828949
          -0.0971359983086586 -0.37860798835754395 0.92044597864151 -0.015370000153779984 -0.4406909942626953 0.8975269794464111
          0.7370489835739136 0.040072001516819 0.6746500134468079 0.7060250043869019 0.008604999631643295 0.7081350088119507
          0.517989993095398 -0.1644030064344406 0.8394389748573303 0.5723959803581238 -0.1165819987654686 0.8116469979286194
          0.41089099645614624 -0.17563199996948242 0.8946070075035095 0.17127199470996857 -0.25646498799324036 0.9512580037117004
          0.0550680011510849 -0.2870030105113983 0.9563450217247009 0.8816630244255066 0.4596720039844513 0.10663799941539764
          0.8964120149612427 0.41935500502586365 0.14347900450229645 0.8776280283927917 0.31964799761772156 0.35720399022102356
          0.8813650012016296 0.4674290120601654 0.06859999895095825 0.831354022026062 0.22433200478553772 0.5084540247917175
          0.8333849906921387 0.1817529946565628 0.5219529867172241 0.6411640048027039 -0.01817600056529045 0.7671880125999451
          0.606751024723053 -0.0437299981713295 0.7936879992485046 0.7936829924583435 0.10190799832344055 0.5997350215911865
          0.609486997127533 -0.010614999569952488 0.7927250266075134 0.6520540118217468 0.026151999831199646 0.7577210068702698
          0.19039100408554077 0.4640029966831207 -0.8651319742202759 0.022995000705122948 0.4278639853000641 -0.9035509824752808
          0.11914899945259094 0.46909698843955994 -0.8750730156898499 0.18851299583911896 0.44943299889564514 -0.8731970191001892
          0.8843680024147034 0.46557000279426575 -0.03373600170016289 0.3201510012149811 0.56700199842453 -0.7589539885520935
          0.7336580157279968 0.5503219962120056 -0.39861199259757996 0.4705770015716553 0.5699319839477539 -0.6735979914665222
          0.8262799978256226 0.5296649932861328 -0.19161400198936462 0.8075839877128601 0.529712975025177 -0.25925201177597046
          0.05847100168466568 0.30204400420188904 -0.9514989852905273 0.15853799879550934 0.2597529888153076 -0.9525719881057739
          0.2572689950466156 0.24531599879264832 -0.9346830248832703 0.4314909875392914 0.3365600109100342 -0.8369839787483215
          0.46502500772476196 0.29653200507164 -0.8341590166091919 0.46308600902557373 0.3820109963417053 -0.7997620105743408
          0.4183019995689392 0.5444210171699524 -0.7270690202713013 0.3187499940395355 0.8323500156402588 -0.45342299342155457
          0.25272899866104126 0.4106769859790802 -0.8760550022125244 0.2669439911842346 0.695294976234436 -0.6673129796981812
          0.27039000391960144 0.773235023021698 -0.5735819935798645 0.2871280014514923 0.025685999542474747 0.9575480222702026
          0.03662500157952309 0.10990499705076218 0.9932669997215271 -0.14865699410438538 0.1843550056219101 0.9715530276298523
          0.3373839855194092 0.3487490117549896 0.8743829727172852 0.10466200113296509 0.45643800497055054 0.8835780024528503
          0.17043699324131012 0.7098879814147949 0.6833810210227966 0.1374489963054657 -0.590038001537323 0.7955899834632874
          0.34095799922943115 -0.18454499542713165 0.9217870235443115 0.14287100732326508 -0.5727270245552063 0.807200014591217
          0.14687199890613556 -0.6041539907455444 0.7832159996032715 0.14294099807739258 -0.5130040049552917 0.8464009761810303
          0.5954440236091614 -0.0013150000013411045 0.8033959865570068 0.05074099823832512 -0.5420020222663879 0.8388440012931824
          -0.034811001271009445 -0.5060359835624695 0.8618090152740479 -0.021453000605106354 -0.5512769818305969 0.8340470194816589
          0.08327999711036682 -0.6112250089645386 0.7870640158653259 0.39860400557518005 0.7792419791221619 -0.4836289882659912
          0.4995810091495514 0.7668889760971069 -0.402866005897522 0.40198200941085815 0.9026179909706116 -0.15391600131988525
          0.37209001183509827 0.8954470157623291 -0.24438300728797913 0.13432399928569794 0.9362940192222595 0.32451701164245605
          -0.03290800005197525 0.9577999711036682 0.2855449914932251 0.24066400527954102 0.8943250179290771 0.37717801332473755
          -0.01967800036072731 0.7471539974212646 0.664359986782074 -0.05391500145196915 0.8675739765167236 0.494378000497818
          0.3002760112285614 0.953790009021759 -0.010870000347495079 0.2600589990615845 0.9569839835166931 0.1286509931087494
          0.06224599853157997 0.9977909922599792 -0.023197000846266747 -0.19526299834251404 -0.40887099504470825 0.8914579749107361
          -0.1330379992723465 -0.43583500385284424 0.8901399970054626 -0.31905099749565125 -0.46800899505615234 0.8241199851036072
          -0.22125999629497528 -0.5160530209541321 0.827485978603363 0.17972800135612488 -0.3641650080680847 0.9138280153274536
          0.3280160129070282 -0.24666999280452728 0.9118989706039429 0.4696049988269806 -0.13129399716854095 0.8730589747428894
          0.19593900442123413 -0.36881598830223083 0.9086160063743591 0.028165999799966812 -0.36320099234580994 0.93128502368927
          0.883571982383728 0.46755799651145935 0.026280999183654785 0.9000369906425476 0.3933669924736023 0.18760399520397186
          0.8933730125427246 0.44161099195480347 0.08285800367593765 0.8903449773788452 0.3464750051498413 0.29536500573158264
          0.8585039973258972 0.28532901406288147 0.42609700560569763 0.8624119758605957 0.49787700176239014 -0.09145399928092957
          0.7900630235671997 0.184920996427536 0.5844699740409851 0.8115090131759644 0.24126000702381134 0.5322089791297913
          0.36945900321006775 -0.21345700323581696 0.9043980240821838 0.5079900026321411 -0.09352599829435349 0.8562710285186768
          0.672465980052948 0.019183000549674034 0.7398800253868103 0.44708898663520813 -0.1705860048532486 0.87807297706604
          0.09561699628829956 0.4147700071334839 -0.9048879742622375 -0.06321500241756439 0.3773140013217926 -0.92392498254776
          0.03998899832367897 0.4614729881286621 -0.8862529993057251 0.00822100043296814 0.4214150011539459 -0.9068310260772705
          -0.04954500123858452 0.36735400557518005 -0.9287610054016113 0.13991700112819672 0.5088120102882385 -0.8494309782981873
          0.6819040179252625 0.5563120245933533 -0.4748939871788025 0.7753199934959412 0.5482739806175232 -0.31348899006843567
          0.5917659997940063 0.5707470178604126 -0.5692629814147949 0.5155940055847168 0.5685759782791138 -0.6410030126571655
          0.8093649744987488 0.5349180102348328 -0.242467001080513 0.16627100110054016 0.4451889991760254 -0.879863977432251
          0.0844620019197464 0.3590239882469177 -0.9294989705085754 -0.06300900131464005 0.19055600464344025 -0.9796519875526428
          0.14196400344371796 0.10365000367164612 -0.9844300150871277 0.3464899957180023 0.20749999582767487 -0.9148160219192505
          0.38595300912857056 0.19153499603271484 -0.9024159908294678 0.36295101046562195 0.22078800201416016 -0.9052730202674866
          0.2758379876613617 0.1703539937734604 -0.9459879994392395 0.35036298632621765 0.8081089854240417 -0.4735029935836792
          0.351296991109848 0.7610539793968201 -0.5453320145606995 0.4265750050544739 0.7824360132217407 -0.453682005405426
          0.1977970004081726 0.1345449984073639 -0.9709659814834595 0.11645500361919403 0.3261849880218506 -0.9381049871444702
          0.017216000705957413 0.16443100571632385 -0.9862380027770996 0.12946300208568573 0.07682500034570694 -0.9886040091514587
          0.09910900145769119 0.4845319986343384 -0.8691409826278687 0.1674399971961975 0.636896014213562 -0.752547025680542
          0.1315300017595291 0.7290850281715393 -0.6716650128364563 0.2568109929561615 0.7357079982757568 -0.6267229914665222
          0.3197770118713379 -0.0796630010008812 0.9441379904747009 0.09053699672222137 -0.1056080013513565 0.9902780055999756
          0.03957999870181084 0.018000999465584755 0.9990540146827698 0.013570000417530537 0.10894100368022919 0.9939560294151306
          0.01861399970948696 0.11647100001573563 0.9930199980735779 0.13128399848937988 0.2515510022640228 0.9588990211486816
          0.04850500077009201 0.2644459903240204 0.9631800055503845 -0.14364899694919586 0.6155710220336914 0.774878978729248
          0.15683400630950928 -0.648419976234436 0.7449529767036438 0.1941480040550232 -0.13842399418354034 0.9711570143699646
          0.18374000489711761 -0.6007689833641052 0.778020977973938 0.11568299680948257 -0.5444480180740356 0.8307790160179138
          0.10735499858856201 -0.3331589996814728 0.9367390275001526 0.07027500122785568 -0.583066999912262 0.809378981590271
          -0.1955610066652298 -0.608502984046936 0.7690770030021667 -0.055775001645088196 -0.6448869705200195 0.7622399926185608
          0.20841099321842194 -0.6121900081634521 0.7627509832382202 0.45410001277923584 0.7599300146102905 -0.46507999300956726
          0.20311300456523895 0.8702939748764038 -0.44870099425315857 0.2743690013885498 0.9005339741706848 -0.3372829854488373
          0.3675070106983185 0.7714390158653259 -0.5194429755210876 0.2375590056180954 0.9624720215797424 -0.1311970055103302
          -0.11715299636125565 0.9845669865608215 0.1300089955329895 0.19805100560188293 0.9485539793968201 0.2470249980688095
          0.0800120010972023 0.9878079891204834 0.13354000449180603 0.052852001041173935 0.705955982208252 0.7062810063362122
          -0.16622599959373474 0.8532919883728027 0.4942280054092407 -0.07937099784612656 0.9847180247306824 -0.1550160050392151
          -0.2936049997806549 -0.48799800872802734 0.8219820261001587 -0.4045169949531555 -0.4953269958496094 0.7687770128250122
          -0.411965012550354 -0.47359299659729004 0.77845698595047 -0.36279600858688354 -0.5527380108833313 0.7502400279045105
          -0.27946600317955017 -0.5602560043334961 0.7797520160675049 0.13864600658416748 -0.35861900448799133 0.9231299757957458
          0.33886298537254333 -0.20126600563526154 0.9190559983253479 0.45277300477027893 -0.1387059986591339 0.8807709813117981
          0.8508790135383606 0.5167940258979797 -0.09449099749326706 0.8458309769630432 0.5151969790458679 -0.13835200667381287
          0.903406023979187 0.4051330089569092 0.1404470056295395 0.8939610123634338 0.32494398951530457 0.3086189925670624
          0.8575080037117004 0.2515909969806671 0.44875600934028625 0.784512996673584 0.19988399744033813 0.5870140194892883
          0.23744900524616241 -0.2486809939146042 0.9390289783477783 -0.018362000584602356 -0.3973909914493561 0.9174659848213196
          0.16890700161457062 -0.3460110127925873 0.9229009747505188 0.42333099246025085 -0.17811700701713562 0.8882930278778076
          0.6560549736022949 0.06389100104570389 0.7520040273666382 0.1887190043926239 -0.2638849914073944 0.9459120035171509
          0.39528900384902954 -0.1563899964094162 0.9051460027694702 0.4557670056819916 -0.1682330071926117 0.8740559816360474
          -0.02006799913942814 0.33802399039268494 -0.9409239888191223 -0.15440000593662262 0.3408379852771759 -0.9273560047149658
          -0.17371200025081635 0.2742300033569336 -0.9458450078964233 -0.11252400279045105 0.42647698521614075 -0.8974720239639282
          -0.12172400206327438 0.3993789851665497 -0.9086689949035645 -0.2148900032043457 0.29712098836898804 -0.9303449988365173
          0.14406299591064453 0.5233010053634644 -0.8398820161819458 0.7550539970397949 0.5516949892044067 -0.3542959988117218
          0.49518799781799316 0.5712950229644775 -0.6545310020446777 0.7046570181846619 0.5624459981918335 -0.43256500363349915
          0.314175009727478 0.550279974937439 -0.7736179828643799 0.798803985118866 0.5422919988632202 -0.2604449987411499
          -0.030967000871896744 0.21408900618553162 -0.9763230085372925 -0.1051890030503273 0.20056700706481934 -0.974016010761261
          -0.15100300312042236 0.09371799975633621 -0.984080970287323 -0.1415109932422638 0.06850200146436691 -0.9875640273094177
          -0.07389699667692184 0.02581699937582016 -0.9969320297241211 0.043522998690605164 -0.021077999845147133 -0.9988300204277039
          0.21854500472545624 0.012155000120401382 -0.9757509827613831 0.41808000206947327 0.7402679920196533 -0.5265089869499207
          0.1491290032863617 -0.0938669964671135 -0.9843519926071167 -0.020461000502109528 0.40039798617362976 -0.916113018989563
          0.036423999816179276 0.6054869890213013 -0.7950209975242615 -0.04354900121688843 0.6433960199356079 -0.7642940282821655
          -0.012748000212013721 0.7038360238075256 -0.7102479934692383 0.05698800086975098 0.7838820219039917 -0.6182889938354492
          0.06356299668550491 0.7373729944229126 -0.6724889874458313 0.08382300287485123 -0.2388319969177246 0.9674360156059265
          0.2032729983329773 -0.05060499906539917 0.9778130054473877 0.15401999652385712 0.08508899807929993 0.9843969941139221
          0.2487100064754486 0.20890800654888153 0.9457809925079346 -0.01408699993044138 0.44997599720954895 0.8929299712181091
          -0.027256999164819717 0.25174298882484436 0.9674100279808044 0.2986980080604553 -0.5716720223426819 0.7641800045967102
          0.17445799708366394 -0.4729729890823364 0.8636320233345032 0.2639240026473999 -0.5538240075111389 0.7896980047225952
          0.2421180009841919 -0.5975720286369324 0.764385998249054 0.07143499702215195 -0.6683019995689392 0.740451991558075
          -0.01687600091099739 -0.6454579830169678 0.763608992099762 -0.1257530003786087 -0.6285679936408997 0.7675210237503052
          -0.2897619903087616 -0.5611739754676819 0.7753199934959412 0.06143900007009506 -0.6874039769172668 0.7236719727516174
          0.2129019945859909 -0.6587210297584534 0.7216370105743408 -0.049908000975847244 0.9723420143127441 -0.22816599905490875
          -0.34213998913764954 0.9394540190696716 -0.019116999581456184 -0.49877798557281494 0.8632500171661377 0.07759299874305725
          -0.13482999801635742 0.7468370199203491 0.6511949896812439 -0.32861900329589844 0.9250109791755676 -0.19069600105285645
          -0.36966198682785034 0.9103590250015259 -0.1860020011663437 -0.32285401225090027 0.9405999779701233 -0.10506000369787216
          -0.4583820104598999 -0.5348219871520996 0.7098249793052673 -0.28443801403045654 -0.5062360167503357 0.8141379952430725
          -0.42192700505256653 -0.5251359939575195 0.7390599846839905 -0.47687798738479614 -0.5227429866790771 0.7066310048103333
          -0.2863810062408447 -0.6509140133857727 0.7030619978904724 -0.3786349892616272 -0.5825210213661194 0.7192400097846985
          -0.09644199907779694 -0.46884098649024963 0.8780019879341125 -0.13578499853610992 -0.4783569872379303 0.8676040172576904