<?xml version="1.0"?>
<VTKFile type="PolyData" version="0.1" byte_order="LittleEndian" header_type="UInt32" compressor="vtkZLibDataCompressor">
  <PolyData>
    <Piece NumberOfPoints="1279" NumberOfVerts="0" NumberOfLines="0" NumberOfStrips="0" NumberOfPolys="2588">
      <PointData Normals="Normals">
        <DataArray type="Float32" Name="Normals" NumberOfComponents="3" format="ascii" RangeMin="0.9999992051646117" RangeMax="1.0000008425675098">
          0.680109977722168 -0.725275993347168 0.10688400268554688 0.6375439763069153 -0.5938090085983276 0.4908440113067627
          0.7319920063018799 -0.5587289929389954 0.38988301157951355 0.4438599944114685 -0.8896049857139587 0.10766500234603882
          0.6547979712486267 -0.4852429926395416 0.5794649720191956 0.42840901017189026 -0.7237169742584229 -0.541018009185791
          0.8262450098991394 -0.5354560017585754 -0.17494800686836243 0.4551970064640045 -0.8146799802780151 0.35929399728775024
          0.49549999833106995 -0.6342219710350037 0.593500018119812 0.6042619943618774 -0.531574010848999 0.5935459733009338
          0.6438559889793396 -0.4671820104122162 0.6059629917144775 0.10973600298166275 -0.9736869931221008 -0.19972999393939972
          0.8370620012283325 -0.5439730286598206 0.05848800018429756 0.5876780152320862 -0.5789039731025696 0.5652469992637634
          0.602707028388977 -0.3223699927330017 -0.7299469709396362 0.17948299646377563 -0.9509260058403015 0.2520419955253601
          0.07290899753570557 -0.9973260164260864 -0.005042999982833862 0.36089199781417847 -0.7435330152511597 0.562952995300293
          0.33356600999832153 -0.7933080196380615 0.5093089938163757 0.6053779721260071 -0.6524450182914734 0.45588698983192444
          0.6598619818687439 -0.6124449968338013 0.4353080093860626 0.14365999400615692 -0.7563700079917908 -0.6381739974021912
          -0.04884900152683258 -0.7804920077323914 -0.6232550144195557 0.12526799738407135 -0.4986189901828766 -0.8577219843864441
          0.27862000465393066 -0.4011929929256439 -0.8725910186767578 0.8128100037574768 -0.23732900619506836 -0.5319910049438477
          0.5993319749832153 -0.6113290190696716 0.5167959928512573 0.5095040202140808 -0.6422169804573059 0.5726799964904785
          0.40402498841285706 -0.7645919919013977 0.5021589994430542 0.6455209851264954 -0.6472899913787842 0.40536099672317505
          0.5390779972076416 -0.695501983165741 0.4750500023365021 0.645887017250061 -0.6429709792137146 0.4116060137748718
          0.01055500004440546 -0.6610959768295288 -0.7502269744873047 -0.16702699661254883 -0.8777779936790466 -0.4490079879760742
          -0.09798099845647812 -0.648019015789032 -0.7552949786186218 0.20003099739551544 -0.2788020074367523 -0.9392859935760498
          0.10339400172233582 -0.391508013010025 -0.9143469929695129 0.014166999608278275 -0.555728018283844 -0.8312439918518066
          0.2415820062160492 -0.13015100359916687 -0.9616129994392395 0.46761900186538696 0.06752800196409225 -0.8813470005989075
          0.9139990210533142 -0.3592729866504669 -0.18848900496959686 0.6854270100593567 -0.6225680112838745 0.37762200832366943
          0.8172479867935181 0.048753999173641205 -0.5742200016975403 -0.11097899824380875 -0.9919229745864868 -0.06141100078821182
          0.09827399998903275 -0.928039014339447 0.35928601026535034 0.611657977104187 -0.6648629903793335 0.4287570118904114
          0.48170700669288635 -0.6617770195007324 0.5744649767875671 0.016085000708699226 -0.8562909960746765 0.5162429809570312
          0.1816370040178299 -0.8011050224304199 0.5702980160713196 0.4465790092945099 -0.6769440174102783 0.5850759744644165
          0.6463199853897095 -0.6050099730491638 0.46500900387763977 0.5956969857215881 -0.5854660272598267 0.5498859882354736
          -0.34545600414276123 -0.8645949959754944 -0.36487799882888794 -0.19039399921894073 -0.7912269830703735 -0.5811280012130737
          0.23824100196361542 -0.2485640048980713 -0.9388589859008789 0.27202901244163513 -0.6496289968490601 -0.7099170088768005
          0.26330500841140747 0.14992299675941467 -0.9529920220375061 0.3140369951725006 0.30084899067878723 -0.900484025478363
          0.3168430030345917 0.3921479880809784 -0.8636149764060974 0.9897590279579163 -0.12158600240945816 -0.07479900121688843
          0.6174349784851074 -0.5916759967803955 0.51835697889328 0.5838310122489929 0.24676799774169922 -0.773464024066925
          0.757652997970581 0.31797298789024353 -0.5699610114097595 -0.026381000876426697 -0.8915780186653137 0.4520989954471588
          0.6171380281448364 -0.5675309896469116 0.5450220108032227 0.7345139980316162 -0.5065400004386902 0.45155999064445496
          0.6675649881362915 -0.6612390279769897 0.3422279953956604 -0.22357900440692902 -0.8554790019989014 0.46708500385284424
          -0.1997849941253662 -0.8431620001792908 0.4991630017757416 0.31633898615837097 -0.6684920191764832 0.6730890274047852
          0.2072020024061203 -0.7210549712181091 0.661171019077301 0.7496320009231567 -0.16188499331474304 0.6417520046234131
          0.6504049897193909 -0.4292449951171875 0.626675009727478 0.5326520204544067 -0.5343919992446899 0.6562830209732056
          -0.41233301162719727 -0.8634330034255981 -0.2906300127506256 -0.11718499660491943 -0.9039729833602905 -0.4112190008163452
          0.1121549978852272 -0.9120849967002869 -0.3943629860877991 0.30422499775886536 -0.787335991859436 -0.5362359881401062
          0.5122609734535217 -0.5643020272254944 -0.6474189758300781 0.5923780202865601 -0.2816930115222931 -0.7548090219497681
          0.4624899923801422 0.21432599425315857 -0.8603299856185913 0.6112310290336609 0.43661001324653625 -0.6601269841194153
          0.2553200125694275 0.6067109704017639 -0.7528039813041687 0.5132049918174744 0.43612998723983765 -0.7391960024833679
          0.4214850068092346 0.5606409907341003 -0.7127640247344971 -0.1450439989566803 -0.9686459898948669 0.2017119973897934
          -0.2556610107421875 -0.8874719738960266 0.38344600796699524 0.8060539960861206 -0.3525719940662384 0.47536298632621765
          -0.4807009994983673 -0.8073670268058777 0.34217599034309387 -0.5033169984817505 -0.8085989952087402 0.3046959936618805
          -0.40680599212646484 -0.8471360206604004 0.3418610095977783 -0.4094820022583008 -0.8513739705085754 0.32785099744796753
          -0.06839200109243393 -0.8361489772796631 0.5442219972610474 -0.26970699429512024 -0.8762289881706238 0.39935100078582764
          0.2537910044193268 -0.7654070258140564 0.5913900136947632 0.014103000052273273 -0.8522599935531616 0.5229290127754211
          0.36941200494766235 -0.6673060059547424 0.6467130184173584 0.616303026676178 -0.4418630003929138 0.6518639922142029
          0.756069004535675 -0.2688849866390228 0.5967079997062683 0.7981680035591125 -0.006260000169277191 0.6024019718170166
          -0.4723230004310608 -0.8663830161094666 -0.16214700043201447 -0.21033699810504913 -0.9684720039367676 -0.1334889978170395
          0.04278700053691864 -0.9635440111160278 -0.2641049921512604 0.46285200119018555 -0.6106529831886292 -0.642549991607666
          0.11956000328063965 -0.77149897813797 -0.6248949766159058 0.12153699994087219 -0.8866999745368958 -0.44608500599861145
          0.5992820262908936 -0.3948340117931366 -0.696395993232727 0.7060400247573853 0.1786230057477951 -0.6852740049362183
          0.7000859975814819 0.5670499801635742 -0.4339739978313446 0.3399699926376343 0.6856979727745056 -0.6436129808425903
          0.20680999755859375 0.6678979992866516 -0.7149419784545898 0.31196099519729614 0.685500979423523 -0.6578519940376282
          0.6434329748153687 0.4932360053062439 -0.5854160189628601 0.9114230275154114 0.30438899993896484 -0.276868999004364
          0.9960100054740906 0.02366200089454651 -0.08604799956083298 0.9477329850196838 -0.11760199815034866 0.29660001397132874
          -0.42096400260925293 -0.8928629755973816 0.1599539965391159 0.8791019916534424 0.07134199887514114 0.4712649881839752
          0.8429149985313416 -0.23050199449062347 0.48617199063301086 -0.5887680053710938 -0.7951599955558777 0.14516499638557434
          -0.5669580101966858 -0.7871580123901367 0.24277600646018982 -0.5819270014762878 -0.767408013343811 0.2691589891910553
          -0.5653129816055298 -0.7920470237731934 0.23039600253105164 -0.5227090120315552 -0.8131070137023926 0.2561880052089691
          -0.01299699954688549 -0.8809829950332642 0.47297000885009766 -0.33494898676872253 -0.8741809725761414 0.3515920042991638
          0.4326069951057434 -0.5923929810523987 0.6796479821205139 0.5985910296440125 -0.5406759977340698 0.591064989566803
          0.5797979831695557 -0.48814600706100464 0.6523399949073792 0.680571973323822 0.47839099168777466 0.5549439787864685
          0.7750059962272644 0.4037410020828247 0.4861679971218109 0.6318680047988892 0.6084629893302917 0.4801200032234192
          0.9324759840965271 0.10499099642038345 0.3456380069255829 0.7969629764556885 -0.3422519862651825 0.4977079927921295
          -0.5250130295753479 -0.8235260248184204 -0.21486300230026245 -0.5668100118637085 -0.8230140209197998 -0.03707699850201607
          -0.28155699372291565 -0.959263026714325 -0.023259000852704048 -0.3427639901638031 -0.9349669814109802 -0.09138000011444092
          -0.16807100176811218 -0.8816390037536621 -0.44098100066185 0.33456501364707947 -0.5781329870223999 -0.7441970109939575
          0.6501060128211975 0.078405000269413 -0.7557880282402039 0.7555630207061768 -0.10505399852991104 -0.6465970277786255
          0.7719539999961853 0.513185977935791 -0.37513598799705505 0.6756790280342102 0.5051850080490112 -0.5368850231170654
          0.6667219996452332 0.28700199723243713 -0.6878309845924377 0.7793700098991394 0.0971440002322197 -0.6189879775047302
          0.5633670091629028 0.7612699866294861 -0.32106900215148926 0.22230300307273865 0.7889729738235474 -0.5728020071983337
          0.40553200244903564 0.7892630100250244 -0.4610939919948578 0.6588839888572693 0.6187260150909424 -0.42784300446510315
          0.9084439873695374 0.4175580143928528 -0.019377000629901886 -0.5227500200271606 -0.8274199962615967 0.20520499348640442
          -0.42813000082969666 -0.8991159796714783 0.09108400344848633 -0.40877100825309753 -0.8636969923973083 0.29484501481056213
          -0.5282859802246094 -0.8027629852294922 0.2765589952468872 -0.5863239765167236 -0.7765690088272095 0.23057499527931213
          -0.5597169995307922 -0.7982469797134399 0.22252699732780457 -0.4955430030822754 -0.8309860229492188 0.2527810037136078
          -0.4738740026950836 -0.8402320146560669 0.2635419964790344 -0.4755209982395172 -0.8385180234909058 0.2660199999809265
          -0.3699980080127716 -0.8568320274353027 0.35908299684524536 -0.15841199457645416 -0.8816570043563843 0.44450700283050537
          -0.5037530064582825 -0.8248969912528992 0.25647100806236267 0.40472400188446045 -0.724062979221344 0.5585079789161682
          0.1551479995250702 -0.8240240216255188 0.5448979735374451 0.3077690005302429 -0.7686769962310791 0.5607270002365112
          0.6633099913597107 -0.5504590272903442 0.5069659948348999 0.8752679824829102 0.26394200325012207 0.4052659869194031
          -0.05625399947166443 -0.9933260083198547 0.10069400072097778 -0.3341819941997528 -0.6072030067443848 -0.7208520174026489
          -0.060662999749183655 -0.8219990134239197 -0.5662490129470825 -0.5669379830360413 -0.7664639949798584 -0.3018519878387451
          -0.6167010068893433 -0.7813169956207275 0.09603899717330933 -0.29414600133895874 -0.935854971408844 0.19404500722885132
          0.543694019317627 -0.29223498702049255 -0.7867630124092102 0.1157659962773323 -0.44217199087142944 -0.8894280195236206
          0.6486600041389465 0.6576979756355286 -0.38297998905181885 0.508778989315033 0.07631800323724747 -0.8575080037117004
          0.5216230154037476 0.5119820237159729 -0.682483971118927 0.6677250266075134 -0.0667940005660057 -0.7414050102233887
          0.6511409878730774 0.02691500075161457 -0.7584800124168396 0.15177200734615326 0.8918520212173462 -0.4261060059070587
          0.2278739959001541 0.8979880213737488 -0.3764199912548065 0.2930310070514679 0.9492759704589844 -0.1140500009059906
          0.6381409764289856 0.7636680006980896 -0.09791299700737 0.5284320116043091 0.8371250033378601 -0.14135700464248657
          0.6058530211448669 0.7471230030059814 -0.27340400218963623 0.40634599328041077 0.8808950185775757 -0.2427089959383011
          0.8024709820747375 0.5932000279426575 -0.06444399803876877 0.9246519804000854 0.3369770050048828 0.17738400399684906
          0.9037200212478638 0.2608509957790375 0.339480996131897 0.6554509997367859 0.6287840008735657 0.41834700107574463
          0.5623689889907837 0.7387719750404358 0.371425986289978 0.4302229881286621 0.785181999206543 0.44541698694229126
          -0.361613005399704 -0.8838179707527161 0.2968190014362335 -0.5286149978637695 -0.7892829775810242 0.31240901350975037
          -0.479900985956192 -0.8043839931488037 0.35023099184036255 -0.6292960047721863 -0.7298089861869812 0.26714301109313965
          -0.748242974281311 -0.6442559957504272 0.1583230048418045 -0.6568310260772705 -0.7353399991989136 0.16687799990177155
          0.18349100649356842 -0.8284810185432434 0.5291020274162292 -0.37800800800323486 -0.848484992980957 0.3703809976577759
          -0.07225500047206879 -0.8609750270843506 0.5034890174865723 -0.2859309911727905 -0.8681740164756775 0.4056070148944855
          -0.5916460156440735 -0.7716220021247864 0.2335669994354248 0.38680699467658997 -0.742605984210968 0.5467320084571838
          0.813772976398468 -0.39614200592041016 0.42525801062583923 0.7852060198783875 0.6123579740524292 0.09202399849891663
          0.620265007019043 0.7696110010147095 0.1515599936246872 0.4366059899330139 0.8553199768066406 0.27893298864364624
          0.3964399993419647 0.8289909958839417 0.39447298645973206 0.9423069953918457 -0.018998000770807266 0.33421099185943604
          0.9107879996299744 0.3880409896373749 0.14103099703788757 -0.13041600584983826 -0.9766349792480469 0.17080800235271454
          -0.8454530239105225 -0.4928700029850006 -0.2056410014629364 -0.7284259796142578 -0.6496840119361877 -0.2175000011920929
          -0.7311810255050659 -0.5348269939422607 -0.42347899079322815 0.3223330080509186 -0.24090300500392914 -0.9154599905014038
          0.45022499561309814 -0.14194799959659576 -0.8815600275993347 -0.3219600021839142 -0.30612000823020935 -0.8958979845046997
          0.5257710218429565 0.633961021900177 -0.5671499967575073 0.3125469982624054 0.7908229827880859 -0.5262259840965271
          0.45770299434661865 0.8306260108947754 -0.31712600588798523 0.6431289911270142 0.747418999671936 -0.16658399999141693
          0.461652010679245 0.2539930045604706 -0.8499199748039246 0.40796801447868347 0.46794000267982483 -0.7839609980583191
          0.3251670002937317 0.6676530241966248 -0.6697059869766235 0.118197001516819 -0.10344099998474121 -0.9875879883766174
          0.624127984046936 0.7812979817390442 0.006138000171631575 0.13454100489616394 0.9703180193901062 -0.2009499967098236
          0.07526600360870361 0.953266978263855 -0.2926029860973358 0.01706100068986416 0.9975900053977966 0.06725800037384033
          0.25155600905418396 0.9669529795646667 0.04148799926042557 0.7434530258178711 0.6600099802017212 0.10800199955701828
          0.35846900939941406 0.8468109965324402 0.3929530084133148 -0.553737998008728 -0.7752360105514526 0.30394700169563293
          -0.7829989790916443 -0.6074640154838562 0.1337900012731552 -0.8505030274391174 -0.5064700245857239 0.14188900589942932
          -0.765733003616333 -0.6000580191612244 0.2314790040254593 -0.881496012210846 -0.4684939980506897 0.05898100137710571
          -0.7882620096206665 -0.6091799736022949 0.08685199916362762 -0.7724559903144836 -0.6274870038032532 0.09783700108528137
          -0.4243159890174866 -0.8409929871559143 0.3356890082359314 0.3702470064163208 -0.7623670101165771 0.530767023563385
          0.20712199807167053 -0.8185189962387085 0.535843014717102 -0.41114500164985657 -0.8414270281791687 0.35065799951553345
          -0.3127799928188324 -0.8509219884872437 0.42201998829841614 -0.0064500002190470695 -0.8539869785308838 0.5202550292015076
          -0.5976849794387817 -0.7680609822273254 0.22990399599075317 -0.7640200257301331 -0.6329240202903748 0.12522399425506592
          0.5806800127029419 -0.6155809760093689 0.5327950119972229 0.5644800066947937 -0.6486989855766296 0.5104420185089111
          0.6288989782333374 -0.6163010001182556 0.4739820063114166 0.9129809737205505 -0.2686609923839569 0.30706000328063965
          0.7704499959945679 0.632157027721405 -0.08236400038003922 0.47502601146698 0.8792740106582642 0.035043999552726746
          0.5687040090560913 0.8011069893836975 -0.18655699491500854 0.31336501240730286 0.9090840220451355 0.27453500032424927
          -0.8734719753265381 -0.472694993019104 -0.11664299666881561 -0.7261630296707153 -0.6759510040283203 0.12560999393463135
          -0.8066570162773132 -0.27504199743270874 -0.523123025894165 -0.6999880075454712 -0.24234099686145782 -0.671779990196228
          0.09596800059080124 0.9084150195121765 -0.40690600872039795 0.47030898928642273 0.882502019405365 0.0007789999945089221
          0.08175799995660782 0.14292499423027039 -0.9863510131835938 0.025169000029563904 0.6205559968948364 -0.7837579846382141
          0.3378849923610687 0.9207090139389038 0.195264995098114 0.13021300733089447 0.9813569784164429 0.1413629949092865
          0.17124499380588531 0.973613977432251 0.1508360058069229 0.37122899293899536 0.920333981513977 0.12318900227546692
          0.24763600528240204 0.9055749773979187 0.34439799189567566 -0.8767809867858887 -0.47398999333381653 0.08116500079631805
          -0.934116005897522 -0.3568190038204193 -0.010382000356912613 -0.9263799786567688 -0.3763040006160736 0.014709999784827232
          -0.8697649836540222 -0.4932810068130493 0.01348700001835823 -0.8554509878158569 -0.5159080028533936 0.04519899934530258
          -0.5212330222129822 -0.7916529774665833 0.31874901056289673 -0.6164169907569885 -0.7520769834518433 0.23326000571250916
          0.44946399331092834 -0.7200080156326294 0.5287449955940247 0.3539940118789673 -0.7415739893913269 0.5698739886283875
          0.2844890058040619 -0.7653779983520508 0.5772889852523804 0.16157600283622742 -0.8123990297317505 0.560267984867096
          -0.39831599593162537 -0.8315380215644836 0.3871549963951111 -0.49180299043655396 -0.792838990688324 0.3599109947681427
          -0.17513200640678406 -0.8625010251998901 0.47478601336479187 0.15519799292087555 -0.7990239858627319 0.5809249877929688
          -0.05231500044465065 -0.8486279845237732 0.5263969898223877 -0.9114480018615723 -0.41047701239585876 -0.02776299975812435
          -0.7376769781112671 -0.651997983455658 0.17530600726604462 -0.8696759939193726 -0.49226999282836914 0.03652900084853172
          0.9730910062789917 0.1625629961490631 0.16330300271511078 0.7802429795265198 -0.4529530107975006 0.4313400089740753
          0.4511539936065674 -0.7006350159645081 0.5527830123901367 0.655610978603363 0.7400739789009094 -0.1498810052871704
          0.42491400241851807 0.8475069999694824 -0.31808799505233765 0.2861120104789734 0.9368680119514465 -0.2010429948568344
          0.49180498719215393 0.7938529849052429 -0.3576669991016388 0.616008996963501 0.7404909729957581 -0.2687140107154846
          0.8755819797515869 0.4812310039997101 0.04209800064563751 0.7526140213012695 0.6536070108413696 -0.07980799674987793
          -0.9362069964408875 -0.1930679976940155 -0.2936689853668213 -0.9325249791145325 -0.2760240137577057 -0.23282699286937714
          -0.9372100234031677 -0.26759499311447144 -0.22367699444293976 -0.9196860194206238 -0.08589299768209457 -0.38314399123191833
          -0.85418701171875 -0.11423499882221222 -0.5072619915008545 -0.5691840052604675 -0.1432410031557083 -0.8096359968185425
          -0.4576669931411743 -0.05357100069522858 -0.887507975101471 -0.12616600096225739 0.743677020072937 -0.6565260291099548
          0.12215100228786469 0.9586740136146545 -0.2569499909877777 0.29989001154899597 0.9446759819984436 -0.13286900520324707
          -0.09967199712991714 0.33549100160598755 -0.9367560148239136 0.31471699476242065 0.9039819836616516 0.28943100571632385
          0.3385629951953888 0.8998479843139648 0.27504199743270874 0.353859007358551 0.930275022983551 0.09681399911642075
          0.48143699765205383 0.87049400806427 0.10226400196552277 0.11779200285673141 0.9904090166091919 0.07221999764442444
          0.07398200035095215 0.9905009865760803 -0.11590400338172913 -0.927357017993927 -0.3234420120716095 -0.18813300132751465
          -0.9634889960289001 -0.2658959925174713 -0.031436000019311905 -0.9875389933586121 -0.13039499521255493 -0.08810900151729584
          -0.9581670165061951 -0.26252099871635437 -0.11401200294494629 -0.9499850273132324 -0.25915899872779846 -0.17425499856472015
          -0.9029849767684937 -0.4285689890384674 -0.030773000791668892 -0.6180880069732666 -0.7366549968719482 0.27441900968551636
          0.3146820068359375 -0.748714029788971 0.5834410190582275 -0.5285590291023254 -0.7773439884185791 0.3411189913749695
          -0.26421600580215454 -0.8564050197601318 0.44357600808143616 -0.08467400074005127 -0.8370440006256104 0.5405439734458923
          -0.945339024066925 -0.3153890073299408 -0.08285100013017654 -0.9659609794616699 -0.20870600640773773 -0.15284399688243866
          -0.7656159996986389 -0.6219559907913208 0.1643269956111908 -0.8509389758110046 -0.5190629959106445 0.08047900348901749
          0.9430969953536987 0.32822901010513306 0.05323199927806854 0.6636890172958374 -0.5376139879226685 0.5200849771499634
          0.5659509897232056 -0.6165419816970825 0.5473350286483765 0.9856380224227905 0.1472969949245453 0.08259599655866623
          0.7055220007896423 0.6832339763641357 -0.18822899460792542 0.20208199322223663 0.9426519870758057 -0.2656489908695221
          0.295073002576828 0.8746370077133179 -0.38463300466537476 0.5926629900932312 0.7449359893798828 -0.306302011013031
          0.4988560080528259 0.7542489767074585 -0.42691001296043396 0.47378599643707275 0.7750279903411865 -0.418161004781723
          0.4495919942855835 0.7959480285644531 -0.4053820073604584 0.4489949941635132 0.8113960027694702 -0.37421900033950806
          0.7725690007209778 0.6267949938774109 -0.10131999850273132 0.8389080166816711 0.5442709922790527 0.001601999974809587
          0.9179490208625793 0.3952629864215851 0.03371800109744072 -0.9223150014877319 0.029162000864744186 -0.3853369951248169
          -0.8409540057182312 -0.03304800018668175 -0.5400969982147217 -0.5220339894294739 0.08048299700021744 -0.8491190075874329
          -0.3594689965248108 0.7056080102920532 -0.6106550097465515 0.008454999886453152 0.9226509928703308 -0.38554200530052185
          -0.5745030045509338 0.371724009513855 -0.7292240262031555 -0.7725300192832947 0.21802400052547455 -0.5963749885559082
          0.3089529871940613 0.9396640062332153 0.14689800143241882 0.16955900192260742 0.9799739718437195 -0.10440099984407425
          0.3227039873600006 0.9022759795188904 0.28593599796295166 -0.27968400716781616 0.4124569892883301 -0.866981029510498
          0.29271700978279114 0.9179739952087402 0.26765599846839905 0.4824270009994507 0.8748769760131836 0.04306500032544136
          0.3340330123901367 0.9076640009880066 -0.2541010081768036 -0.879705011844635 -0.2860560119152069 -0.37985798716545105
          -0.8924480080604553 -0.20475399494171143 -0.4020099937915802 -0.9130949974060059 -0.14914800226688385 -0.379489004611969
          -0.9870880246162415 -0.02335900068283081 -0.15846900641918182 -0.949379026889801 0.1651179939508438 -0.26723799109458923
          -0.948639988899231 0.037859998643398285 -0.314083993434906 -0.9679239988327026 -0.004317000042647123 -0.25120601058006287
          -0.9229450225830078 -0.19843700528144836 -0.3298420011997223 0.2855609953403473 -0.7547299861907959 0.5906239748001099
          0.35022199153900146 -0.7356020212173462 0.5798569917678833 0.2802009880542755 -0.7602750062942505 0.586063027381897
          0.10671500116586685 -0.8128049969673157 0.5726780295372009 -0.08036699891090393 -0.836417019367218 0.542169988155365
          -0.6896979808807373 -0.6803330183029175 0.2479179948568344 -0.31422901153564453 -0.8347190022468567 0.45222100615501404
          -0.4294529855251312 -0.8060619831085205 0.4072270095348358 -0.53084397315979 -0.7660019993782043 0.36255401372909546
          -0.6920170187950134 -0.6641939878463745 0.2827709913253784 -0.9555420279502869 -0.2584869861602783 -0.1418599933385849
          -0.9299409985542297 -0.36385300755500793 -0.053112998604774475 -0.9307460188865662 -0.36420899629592896 -0.03260599821805954
          -0.9433119893074036 0.019294999539852142 -0.3313460052013397 -0.9091560244560242 0.08018500357866287 -0.4086639881134033
          -0.7886469960212708 -0.5935329794883728 0.16048100590705872 -0.8836179971694946 -0.4642319977283478 0.06088300049304962
          0.9848719835281372 0.14121200144290924 0.10043399780988693 0.9425190091133118 -0.18714800477027893 0.27682799100875854
          0.5456889867782593 0.7519999742507935 -0.3697560131549835 0.6717320084571838 0.7052620053291321 -0.22667700052261353
          0.3846760094165802 0.8159719705581665 -0.43152499198913574 0.27882400155067444 0.8332319855690002 -0.47747400403022766
          0.35531601309776306 0.8218299746513367 -0.4453609883785248 0.4651240110397339 0.789264976978302 -0.4009000062942505
          0.4834330081939697 0.7802079916000366 -0.39694899320602417 0.4771749973297119 0.8114650249481201 -0.3373839855194092
          0.4359950125217438 0.8486120104789734 -0.2996079921722412 0.37757599353790283 0.865024983882904 -0.3304060101509094
          0.24641400575637817 0.8934730291366577 -0.3754819929599762 0.7237579822540283 0.6673169732093811 -0.1756799966096878
          0.8444759845733643 0.5280709862709045 -0.08944500237703323 0.7736610174179077 0.6187949776649475 -0.13616900146007538
          -0.8835909962654114 -0.12243899703025818 -0.4519689977169037 -0.9186540246009827 -0.05256500095129013 -0.3915509879589081
          -0.8317869901657104 -0.01551199983805418 -0.5548779964447021 -0.5472120046615601 0.15253600478172302 -0.8229770064353943
          -0.5197139978408813 0.6460019946098328 -0.5590869784355164 0.4217979907989502 0.8757820129394531 0.23471599817276
          -0.3695310056209564 0.9144579768180847 -0.16496199369430542 -0.3180049955844879 0.8584150075912476 -0.40248799324035645
          0.2097020000219345 0.9746760129928589 0.0776669979095459 0.39826101064682007 0.9167810082435608 0.030023999512195587
          0.5592870116233826 0.8104749917984009 -0.1741500049829483 0.5369300246238708 0.8201149702072144 -0.1977819949388504
          0.5791170001029968 0.8129990100860596 -0.06046200171113014 0.11785200238227844 0.9572780132293701 -0.2640630006790161
          -0.857928991317749 -0.1848910003900528 -0.47934600710868835 -0.9348629713058472 0.24547700583934784 -0.2564600110054016
          -0.7146589756011963 0.5467780232429504 -0.43623000383377075 -0.8682140111923218 0.2750509977340698 -0.41297799348831177
          -0.9137300252914429 0.04971799999475479 -0.4032689929008484 0.35920900106430054 -0.733165979385376 0.5774400234222412
          0.18335199356079102 -0.7888500094413757 0.5865979790687561 0.3632650077342987 -0.7152690291404724 0.5970169901847839
          -0.10346999764442444 -0.846992015838623 0.5214390158653259 0.04886699840426445 -0.8135700225830078 0.5794100165367126
          -0.30040499567985535 -0.8403540253639221 0.45117801427841187 -0.7628560066223145 -0.6243069767951965 0.16820000112056732
          -0.7629809975624084 -0.6133530139923096 0.20410500466823578 -0.5353230237960815 -0.7711349725723267 0.34464600682258606
          -0.9576249718666077 -0.26878899335861206 -0.10346899926662445 -0.9529920220375061 -0.06664299964904785 -0.2955760061740875
          -0.9663429856300354 -0.1807200014591217 -0.1830880045890808 -0.9703500270843506 -0.19889600574970245 -0.13733899593353271
          -0.9228780269622803 0.11679200083017349 -0.3669539988040924 -0.8003060221672058 0.29289400577545166 -0.5231860280036926
          -0.9634640216827393 -0.2509700059890747 -0.09354999661445618 -0.8625490069389343 -0.49888598918914795 0.0843920037150383
          -0.9194250106811523 -0.39325401186943054 -0.0030330000445246696 -0.9567340016365051 -0.275519996881485 -0.09353099763393402
          0.5270280241966248 -0.6534630060195923 0.5433480143547058 0.8267359733581543 -0.3676140010356903 0.4258730113506317
          0.6560819745063782 0.7093480229377747 -0.25764700770378113 0.4840500056743622 0.7769150137901306 -0.4026150107383728
          0.607869029045105 0.7225490212440491 -0.32927000522613525 0.16205500066280365 0.8675529956817627 -0.4702019989490509
          0.21786099672317505 0.840927004814148 -0.4953570067882538 0.27448201179504395 0.8320770263671875 -0.4819830060005188
          0.3888710141181946 0.8133710026741028 -0.43267500400543213 0.41921600699424744 0.8843969702720642 -0.20518100261688232
          0.4204939901828766 0.8924030065536499 -0.16371400654315948 0.309143990278244 0.9076120257377625 -0.28402501344680786
          0.17489400506019592 0.9191240072250366 -0.3530200123786926 -0.2902500033378601 0.8339859843254089 -0.4692780077457428
          0.8687739968299866 0.4830310046672821 -0.10914500057697296 0.8665080070495605 0.4665749967098236 -0.1774049997329712
          0.7604990005493164 0.5998610258102417 -0.24861200153827667 0.7308030128479004 0.6488990187644958 -0.21179500222206116
          -0.9032319784164429 -0.15689699351787567 -0.39944401383399963 -0.8564620018005371 -0.11768800020217896 -0.5026159882545471