<?xml version="1.0"?>
<VTKFile type="PolyData" version="0.1" byte_order="LittleEndian" header_type="UInt32" compressor="vtkZLibDataCompressor">
  <PolyData>
    <Piece NumberOfPoints="1139" NumberOfVerts="0" NumberOfLines="0" NumberOfStrips="0" NumberOfPolys="2294">
      <PointData Normals="Normals">
        <DataArray type="Float32" Name="Normals" NumberOfComponents="3" format="ascii" RangeMin="0.9999992733289667" RangeMax="1.000000787503149">
          -0.4973439872264862 -0.7570679783821106 -0.42367100715637207 -0.29969099164009094 -0.6787809729576111 -0.6704040169715881
          -0.10212399810552597 -0.9925730228424072 -0.06609799712896347 -0.40468698740005493 -0.9140909910202026 0.02582000009715557
          -0.1913120001554489 -0.7311050295829773 -0.6548929810523987 -0.3573180139064789 -0.6089659929275513 -0.7081559896469116
          -0.6793810129165649 -0.438416987657547 -0.5884150266647339 -0.5171689987182617 -0.5225210189819336 -0.6778709888458252
          -0.6646069884300232 -0.5764380097389221 -0.4754120111465454 -0.7076320052146912 -0.702521026134491 -0.07563900202512741
          -0.8064600229263306 -0.5194209814071655 -0.2825320065021515 -0.088127002120018 -0.9779840111732483 -0.18915799260139465
          0.018490999937057495 -0.8740050196647644 -0.48556599020957947 -0.050498999655246735 -0.756479024887085 -0.6520659923553467
          0.05618999898433685 -0.7118139863014221 -0.700115978717804 -0.3649510145187378 -0.728717029094696 -0.5794669985771179
          -0.9033250212669373 -0.2896539866924286 -0.3163920044898987 -0.7239699959754944 -0.37352100014686584 -0.5799559950828552
          0.16177399456501007 -0.703777015209198 0.691756010055542 -0.09028500318527222 -0.8963090181350708 0.43414199352264404
          0.03408300131559372 -0.8979610204696655 0.43875300884246826 0.2017430067062378 -0.9641460180282593 -0.17239999771118164
          0.22240400314331055 -0.7709439992904663 -0.5968090295791626 0.2288849949836731 -0.8050609827041626 -0.5472549796104431
          0.194472998380661 -0.7268670201301575 -0.6586689949035645 -0.050328001379966736 -0.8734570145606995 -0.48429301381111145
          -0.453700989484787 -0.7692559957504272 -0.44988900423049927 -0.7408909797668457 -0.569998025894165 -0.35522300004959106
          -0.8469330072402954 -0.24787600338459015 -0.47038498520851135 -0.8755109906196594 -0.1283089965581894 -0.4658510088920593
          -0.8026229739189148 -0.5307760238647461 -0.2721650004386902 -0.9157750010490417 -0.09811899811029434 -0.38952499628067017
          -0.8855130076408386 -0.4316839873790741 -0.17180199921131134 -0.9776579737663269 -0.1558469980955124 -0.14105400443077087
          -0.9771940112113953 -0.20940999686717987 -0.03521300107240677 -0.9568979740142822 -0.07002300024032593 -0.2818560004234314
          -0.02136800065636635 -0.7171540260314941 0.6965870261192322 -0.3823780119419098 -0.8059800267219543 0.451867014169693
          -0.7784469723701477 -0.5854610204696655 0.22639699280261993 -0.8853750228881836 -0.4245229959487915 -0.18945099413394928
          0.08676300197839737 -0.9704840183258057 0.22501899302005768 0.3970099985599518 -0.9107210040092468 -0.11388199776411057
          0.5043240189552307 -0.7271980047225952 -0.4656609892845154 0.4330799877643585 -0.6683670282363892 -0.6047530174255371
          0.5623180270195007 -0.7142300009727478 -0.4167430102825165 0.3273079991340637 -0.886139988899231 -0.3280630111694336
          0.17337200045585632 -0.9068660140037537 -0.38410401344299316 0.1500840038061142 -0.9634889960289001 -0.22172799706459045
          -0.5700309872627258 -0.8055409789085388 -0.16176599264144897 -0.9526789784431458 -0.2395090013742447 -0.18718299269676208
          -0.9194999933242798 -0.03562000021338463 -0.3914720118045807 -0.9151210188865662 0.02538999915122986 -0.40237799286842346
          -0.8697440028190613 -0.49318599700927734 0.0176829993724823 -0.7913159728050232 -0.6027939915657043 -0.10226500034332275
          -0.9573990106582642 -0.27120500802993774 0.09917300194501877 -0.9953370094299316 -0.09640800207853317 0.0031300000846385956
          -0.968550980091095 0.1914989948272705 -0.15886299312114716 0.196710005402565 -0.5480009913444519 0.8130189776420593
          0.12076500058174133 -0.7120100259780884 0.6917060017585754 0.2740339934825897 -0.469870001077652 0.8391240239143372
          0.1647450029850006 -0.529246985912323 0.832319974899292 0.31999900937080383 -0.5418760180473328 0.7771559953689575
          -0.830735981464386 -0.3939549922943115 0.3932900130748749 -0.3328459858894348 -0.6371949911117554 0.695123016834259
          0.21304099261760712 -0.8378120064735413 0.5026779770851135 0.6770920157432556 -0.5644540190696716 -0.47216200828552246
          0.5483599901199341 -0.6171830296516418 -0.5642579793930054 0.5165150165557861 -0.7972429990768433 -0.31243398785591125
          0.26256000995635986 -0.9641450047492981 -0.03854599967598915 0.602288007736206 -0.7919629812240601 -0.10021799802780151
          -0.13587899506092072 -0.9858930110931396 -0.0977339968085289 -0.29628801345825195 -0.9521160125732422 -0.0754299983382225
          -0.9857990145683289 0.016700999811291695 -0.16709600389003754 -0.9501069784164429 -0.24106299877166748 0.19795100390911102
          -0.9023690223693848 0.07670100033283234 -0.42408400774002075 -0.8758040070533752 0.25475800037384033 -0.40995898842811584
          -0.5560740232467651 -0.8310459852218628 -0.012040000408887863 -0.7177540063858032 -0.696287989616394 -0.0036039999686181545
          -0.7220960259437561 -0.6904309988021851 0.04339300096035004 -0.953324019908905 -0.24335099756717682 0.17875400185585022
          -0.9894369840621948 0.08698199689388275 0.11596400290727615 -0.9644089937210083 -0.05164400115609169 0.25932401418685913
          -0.9530010223388672 0.27399200201034546 0.12929899990558624 -0.9337729811668396 0.35301101207733154 -0.05874300003051758
          -0.8658300042152405 0.3449699878692627 -0.36239999532699585 0.2983570098876953 -0.44179999828338623 0.8460469841957092
          0.22025500237941742 -0.4301919937133789 0.8754559755325317 0.3965280055999756 -0.7591249942779541 0.5162310004234314
          0.4162079989910126 -0.6315580010414124 0.6541450023651123 0.17511999607086182 -0.4399079978466034 0.8808029890060425
          -0.10551799833774567 -0.6097000241279602 0.7855769991874695 0.05960699915885925 -0.46779099106788635 0.8818269968032837
          -0.5009999871253967 -0.49270498752593994 0.7115060091018677 -0.6840720176696777 -0.35565900802612305 0.6368299722671509
          0.6905999779701233 -0.7051810026168823 0.16059699654579163 0.6080970168113708 -0.7908669710159302 0.06890799850225449
          0.7823309898376465 -0.5956940054893494 -0.1819559931755066 0.817458987236023 -0.4066619873046875 -0.4079050123691559
          0.7777469754219055 -0.5109220147132874 -0.3661530017852783 0.75142502784729 -0.6125890016555786 -0.24514299631118774
          0.3542560040950775 -0.9328640103340149 -0.06532099843025208 0.15322400629520416 -0.9786009788513184 -0.1373409926891327
          0.022115999832749367 -0.9951919913291931 -0.09541399776935577 0.587211012840271 -0.8091260194778442 -0.02234099991619587
          0.7365549802780151 -0.6755470037460327 -0.03351899981498718 0.5609300136566162 -0.7841479778289795 -0.2654620110988617
          0.7620239853858948 -0.6427800059318542 0.07843799889087677 0.8043959736824036 -0.5774809718132019 -0.139506995677948
          0.7785680294036865 -0.6240419745445251 0.06635499745607376 -0.1019899994134903 -0.9870659708976746 -0.1236879974603653
          -0.4963349997997284 -0.8681089878082275 -0.006175999995321035 -0.08013500273227692 -0.9642860293388367 -0.25245198607444763
          -0.2129880040884018 -0.9115319848060608 -0.35177499055862427 -0.9988080263137817 0.03487800061702728 0.03413999825716019
          -0.916638970375061 0.21838299930095673 -0.3347870111465454 -0.8774369955062866 -0.2096250057220459 0.43146398663520813
          -0.849856972694397 0.27935799956321716 -0.4468809962272644 -0.8953419923782349 -0.4438929855823517 0.036347001791000366
          -0.6447920203208923 -0.7388669848442078 -0.19575099647045135 -0.8420910239219666 -0.5321630239486694 -0.08766599744558334
          -0.992825984954834 -0.028307000175118446 0.11617200076580048 -0.9783539772033691 -0.1987220048904419 0.05772700160741806
          -0.9249299764633179 0.22851799428462982 0.30378401279449463 -0.9593660235404968 0.07365100085735321 0.272381991147995
          -0.9097740054130554 0.1456499993801117 0.38871198892593384 -0.9484639763832092 0.23680299520492554 0.21056999266147614
          -0.9363229870796204 0.327335000038147 -0.12708799540996552 0.2627109885215759 -0.44470399618148804 0.8562830090522766
          0.16072599589824677 -0.4391680061817169 0.8839110136032104 0.5794829726219177 -0.7462530136108398 0.32757601141929626
          0.4579850137233734 -0.5083240270614624 0.7292850017547607 0.4027000069618225 -0.43127599358558655 0.8073620200157166
          0.19442600011825562 -0.5091350078582764 0.8384389877319336 0.46858298778533936 -0.38674598932266235 0.7942659854888916
          0.2498220056295395 -0.4599269926548004 0.852088987827301 0.27244099974632263 -0.47468701004981995 0.8369280099868774
          0.21642200648784637 -0.4252850115299225 0.878803014755249 -0.016580000519752502 -0.42820999026298523 0.903527021408081
          -0.6007030010223389 -0.4030750095844269 0.6904249787330627 -0.3707430064678192 -0.40935999155044556 0.8336510062217712
          -0.5199270248413086 -0.35641101002693176 0.7763040065765381 0.8411470055580139 -0.4898949861526489 -0.22907300293445587
          0.9149330258369446 -0.32617899775505066 -0.2377070039510727 0.3481059968471527 -0.8621029853820801 -0.36823999881744385
          0.14879000186920166 -0.9037550091743469 -0.4013589918613434 0.664542019367218 -0.7427700161933899 -0.08171000331640244
          0.8475679755210876 -0.521248996257782 0.09964500367641449 0.8755980134010315 -0.47364699840545654 -0.09480299800634384
          0.7695720195770264 -0.5893669724464417 -0.2457749992609024 0.8558210134506226 -0.4700619876384735 -0.2158990055322647
          0.882394015789032 -0.47051098942756653 -0.0005649999948218465 0.14681799709796906 -0.7573540210723877 -0.6362850069999695
          -0.25420400500297546 -0.7079570293426514 -0.658922016620636 -0.9056559801101685 -0.05525299906730652 0.420397013425827
          -0.9737759828567505 0.22466899454593658 0.0358240008354187 -0.6962950229644775 -0.2517069876194 0.672173023223877
          -0.83263099193573 0.3363960087299347 -0.43995800614356995 -0.9667459726333618 -0.25389501452445984 -0.030650999397039413
          -0.6840059757232666 -0.6276940107345581 -0.3716669976711273 -0.8251010179519653 -0.45603498816490173 -0.33352699875831604
          -0.9146919846534729 -0.303070992231369 -0.2673709988594055 -0.9943169951438904 0.08268799632787704 0.06704699993133545
          -0.9972730278968811 -0.06102700158953667 -0.041496001183986664 -0.8891509771347046 0.20390699803829193 0.4096750020980835
          -0.9289569854736328 0.1122329980134964 0.3527640104293823 -0.9893990159034729 0.08835499733686447 -0.11524900048971176
          -0.9436730146408081 0.10923200100660324 -0.3123300075531006 -0.8907179832458496 0.22415600717067719 -0.39544299244880676
          -0.9535930156707764 0.17488500475883484 -0.24510300159454346 0.6511600017547607 -0.5751050114631653 0.4952229857444763
          0.7154979705810547 -0.41791099309921265 0.5598329901695251 0.26168298721313477 -0.5374860167503357 0.8016430139541626
          0.5249900221824646 -0.36881300806999207 0.7670480012893677 0.3195129930973053 -0.4066550135612488 0.8558869957923889
          0.3367289900779724 -0.3526279926300049 0.8730790019035339 0.18378199636936188 -0.48570799827575684 0.8545830249786377
          -0.07706700265407562 -0.41388601064682007 0.907060980796814 -0.5019639730453491 -0.2363310009241104 0.8319740295410156
          0.8206279873847961 -0.4952769875526428 0.2850779891014099 0.9080560207366943 -0.4151709973812103 0.05538899824023247
          0.9351969957351685 -0.2916949987411499 -0.20080000162124634 0.9753209948539734 -0.2141440063714981 -0.05377199873328209
          0.5125589966773987 -0.5771120190620422 -0.6357870101928711 0.33701398968696594 -0.7558720111846924 -0.5613189935684204
          0.9379690289497375 -0.3443340063095093 -0.04060100018978119 0.970999002456665 -0.23222799599170685 -0.05685200169682503
          0.7756369709968567 -0.37146300077438354 -0.5102970004081726 0.8350930213928223 -0.19891700148582458 -0.5128859877586365
          0.695501983165741 -0.21960900723934174 -0.6841409802436829 0.9090800285339355 -0.41464099287986755 0.04058900102972984
          0.9598550200462341 -0.265949010848999 -0.08916199952363968 0.07762199640274048 -0.6497949957847595 -0.7561349868774414
          0.4150809943675995 -0.37791600823402405 -0.8275790214538574 -0.7120109796524048 -0.06923100352287292 0.6987469792366028
          -0.831911027431488 0.11276300251483917 0.5433319807052612 -0.9103519916534424 0.3961009979248047 0.11984899640083313
          -0.8668829798698425 0.4008469879627228 -0.2963710129261017 -0.9000260233879089 0.3203279972076416 -0.29553699493408203
          -0.9599850177764893 -0.24563999474048615 -0.13449899852275848 -0.9698359966278076 0.002420000033453107 -0.24374400079250336
          -0.5114009976387024 -0.44258201122283936 -0.736607015132904 -0.7223320007324219 -0.2155359983444214 -0.6571000218391418
          -0.9016079902648926 -0.08013699948787689 -0.4250670075416565 -0.9566320180892944 0.17235800623893738 0.23483799397945404
          -0.9804400205612183 0.15761500597000122 -0.11787500232458115 -0.9625920057296753 0.27095499634742737 0.0006699999794363976
          -0.8800680041313171 0.359127014875412 0.31065699458122253 -0.8735550045967102 0.23116299510002136 0.4283289909362793
          -0.8935819864273071 0.2518959939479828 0.37156400084495544 -0.9781529903411865 0.02544100023806095 0.2063239961862564
          -0.9563590288162231 0.054065000265836716 0.28714999556541443 -0.9932169914245605 -0.058097001165151596 -0.10072500258684158
          -0.9965749979019165 -0.057829998433589935 0.05911500006914139 -0.956570029258728 0.051594000309705734 -0.28690001368522644
          -0.9992709755897522 0.036490000784397125 0.011203999631106853 -0.9905400276184082 0.03425600007176399 -0.1328829973936081
          0.7291799783706665 -0.3457300066947937 0.590565025806427 0.2426760047674179 -0.4729050099849701 0.8470360040664673
          0.676468014717102 -0.3755370080471039 0.6335330009460449 0.4762899875640869 -0.21329599618911743 0.8530259728431702
          0.26090601086616516 -0.3200410008430481 0.9107699990272522 0.34519100189208984 -0.23955799639225006 0.9074440002441406
          0.1884469985961914 -0.4665679931640625 0.8641769886016846 0.10110899806022644 -0.38831400871276855 0.9159640073776245
          -0.15456199645996094 -0.3296070098876953 0.9313799738883972 -0.2935110032558441 -0.15406499803066254 0.9434589743614197
          -0.13765299320220947 -0.24560700356960297 0.9595460295677185 0.9128760099411011 -0.3147889971733093 0.2599329948425293
          0.9886400103569031 -0.1496340036392212 -0.014181000180542469 0.9683340191841125 -0.1315390020608902 0.21219299733638763
          0.5477709770202637 -0.0630280002951622 -0.8342509865760803 0.983892023563385 0.004745999816805124 -0.17869800329208374
          0.9879990220069885 -0.15354099869728088 0.016858000308275223 0.9446880221366882 -0.32058700919151306 0.06920000165700912
          0.9230530261993408 -0.1374479979276657 -0.35927799344062805 0.7354980111122131 -0.032972998917102814 -0.6767240166664124
          0.8186230063438416 0.014681999571621418 -0.5741429924964905 0.9729689955711365 -0.22262099385261536 0.061413999646902084
          0.2924639880657196 -0.37481701374053955 -0.8797600269317627 0.2584860026836395 -0.22567600011825562 -0.9392840266227722
          -0.03764199838042259 -0.17939099669456482 -0.983057975769043 -0.4948360025882721 -0.03966499865055084 0.8680809736251831
          -0.7352309823036194 0.16564199328422546 0.6572660207748413 -0.9385640025138855 0.34000200033187866 -0.059130001813173294
          -0.8465179800987244 0.32868900895118713 0.41877201199531555 -0.7059599757194519 0.2763870060443878 -0.6520969867706299
          -0.18436400592327118 0.049660999327898026 -0.9816030263900757 -0.633467972278595 0.1454170048236847 -0.7599819898605347
          -0.9302999973297119 0.299809992313385 0.2113189995288849 -0.8872640132904053 0.29476800560951233 -0.3547869920730591
          -0.9376310110092163 0.34509798884391785 0.041891999542713165 -0.9362159967422485 0.3270129859447479 0.12869800627231598
          -0.919625997543335 0.26428699493408203 0.290585994720459 -0.9970369935035706 -0.047901999205350876 0.06018799915909767
          -0.9823669791221619 0.16597600281238556 0.08605899661779404 -0.9731389880180359 -0.022321000695228577 -0.22913500666618347
          -0.9569460153579712 -0.005743000190705061 -0.29020899534225464 -0.9881849884986877 -0.06529399752616882 -0.13866600394248962
          -0.9776309728622437 -0.029172999784350395 -0.20829400420188904 -0.9962210059165955 -0.06384000182151794 -0.05889200046658516
          -0.9326670169830322 0.09480799734592438 0.34805598855018616 -0.9980189800262451 -0.03428800031542778 0.052751000970602036
          -0.940110981464386 -0.024361999705433846 0.33999699354171753 0.807299017906189 -0.2759630084037781 0.5216439962387085
          0.7093120217323303 -0.24979999661445618 0.6591489911079407 0.24570399522781372 -0.25428301095962524 0.9353979825973511
          0.821927011013031 0.018787000328302383 0.5692840218544006 0.5336509943008423 -0.13144099712371826 0.83542799949646
          0.44273999333381653 -0.05988600105047226 0.894648015499115 0.18462300300598145 -0.16658799350261688 0.9685879945755005
          0.013902000151574612 -0.22290000319480896 0.9747419953346252 -0.029596000909805298 -0.11875399947166443 0.9924830198287964
          0.9941740036010742 -0.0890360027551651 0.060750000178813934 0.9839659929275513 -0.03606899827718735 0.1746719926595688
          0.8947269916534424 -0.08720599859952927 0.43801599740982056 0.9814469814300537 -0.018355000764131546 0.1908539980649948
          0.8390309810638428 0.1944579929113388 -0.5081470012664795 0.9186109900474548 0.17076699435710907 -0.35635900497436523
          0.9679999947547913 0.14490699768066406 -0.20488500595092773 0.9989820122718811 0.006333000026643276 0.0446540005505085
          0.7773420214653015 0.2019830048084259 -0.595770001411438 0.7099630236625671 0.14543800055980682 -0.6890569925308228
          0.6089959740638733 0.21060100197792053 -0.7647029757499695 0.4341750144958496 0.08213099837303162 -0.8970770239830017
          0.4617139995098114 0.07057899981737137 -0.8842170238494873 -0.2675589919090271 -0.18752799928188324 -0.9451169967651367
          0.28240299224853516 0.053254999220371246 -0.9578160047531128 -0.24281799793243408 -0.05543399974703789 0.968487024307251
          -0.9287899732589722 0.2529509961605072 0.2708590030670166 -0.5452439785003662 0.30535200238227844 -0.7806850075721741
          -0.6587100028991699 0.4250220060348511 -0.6208530068397522 -0.1639840006828308 0.2946319878101349 -0.9414359927177429
          -0.9076970219612122 0.3306269943714142 -0.2584030032157898 -0.8629040122032166 0.4437359869480133 -0.24185700714588165
          -0.7953929901123047 0.5695379972457886 -0.20730799436569214 -0.8639119863510132 0.4692569971084595 -0.1829030066728592
          -0.9577379822731018 0.26955801248550415 -0.10038000345230103 -0.7531690001487732 0.5675539970397949 -0.33259299397468567
          -0.7446110248565674 0.43820101022720337 -0.5035219788551331 -0.9853960275650024 0.11061999946832657 -0.12945300340652466
          -0.9934409856796265 -0.0287919994443655 -0.11066000163555145 -0.9823960065841675 -0.11858300119638443 -0.14435000717639923
          -0.9762359857559204 -0.21661899983882904 -0.006302999798208475 -0.9235159754753113 -0.24333199858665466 0.29649001359939575
          -0.9452289938926697 -0.1179329976439476 0.30435898900032043 0.6408140063285828 0.024460000917315483 0.7673069834709167
          0.3103100061416626 0.008564000017940998 0.9505969882011414 0.17615799605846405 -0.07823900133371353 0.9812480211257935
          -0.12162800133228302 -0.05099000036716461 0.9912649989128113 0.9273809790611267 0.07186900079250336 0.36715200543403625
          0.9746109843254089 0.00533400010317564 0.22383899986743927 0.4474549889564514 0.22967399656772614 -0.8643109798431396
          0.8666989803314209 0.24789999425411224 -0.432871013879776 0.9475280046463013 0.1742050051689148 -0.26803699135780334
          0.9906719923019409 0.10522899776697159 0.08658099919557571 0.978007972240448 0.19572700560092926 -0.07204599678516388
          0.668196976184845 0.3365130126476288 -0.6635299921035767 0.7878410220146179 0.2647629976272583 -0.5560640096664429
          0.6279500126838684 0.3431969881057739 -0.6984949707984924 0.4672189950942993 0.3428870141506195 -0.8149449825286865
          0.4650709927082062 0.27143898606300354 -0.8426330089569092 0.4831799864768982 0.18562699854373932 -0.8556169867515564
          0.28718501329421997 0.2514669895172119 -0.9242780208587646 -0.5152620077133179 0.11147599667310715 0.8497509956359863
          -0.5901669859886169 0.12587599456310272 0.7974079847335815 -0.8144649863243103 0.1747490018606186 0.553272008895874
          -0.2540999948978424 0.3994179964065552 -0.8808509707450867 -0.39931100606918335 0.4955570101737976 -0.7713459730148315
          0.30430999398231506 0.3542790114879608 -0.884240984916687 -0.5345579981803894 0.6574860215187073 -0.5309990048408508
          -0.8352749943733215 0.37686100602149963 -0.4003640115261078 -0.9282220005989075 0.2069700062274933 -0.30913999676704407
          -0.9702209830284119 0.027089999988675117 -0.24070300161838531 -0.974232017993927 -0.08430799841880798 -0.209196999669075
          -0.9766560196876526 -0.16614200174808502 -0.13615800440311432 -0.957397997379303 -0.13936999440193176 -0.2529140114784241
          -0.8958529829978943 -0.3672359883785248 0.2501710057258606 -0.9637699723243713 -0.26440098881721497 -0.035200998187065125
          -0.7471470236778259 -0.23451200127601624 0.6219130158424377 -0.6739749908447266 -0.35358700156211853 0.648639976978302
          -0.6772230267524719 -0.42777499556541443 0.5986469984054565 -0.6358029842376709 0.028443999588489532 0.771327018737793
          -0.5521630048751831 -0.10088499635457993 0.8276100158691406 0.6687430143356323 0.01829800009727478 0.7432690262794495
          0.8402919769287109 0.09977699816226959 0.5328739881515503 0.2510870099067688 -0.08013100177049637 0.9646419882774353
          0.369268000125885 -0.10710900276899338 0.9231299757957458 0.16618099808692932 -0.1616239994764328 0.972760021686554
          -0.18863600492477417 -0.07321300357580185 0.9793140292167664 0.9491549730300903 0.004100999794900417 0.3147819936275482
          0.8967850208282471 0.03183000162243843 0.44131898880004883 0.9871580004692078 0.12436500191688538 0.10026499629020691
          0.9712420105934143 0.05778700113296509 0.23097500205039978 0.8015339970588684 0.26309800148010254 -0.5369570255279541
          0.8937320113182068 0.2743160128593445 -0.3549570143222809 0.9558029770851135 0.2563819885253906 -0.14390799403190613
          0.9663490056991577 0.24183699488639832 -0.08766300231218338 0.9817799925804138 0.1894810050725937 -0.014302000403404236
          0.5726510286331177 0.3497070074081421 -0.7414680123329163 0.6765080094337463 0.2911800146102905 -0.6764249801635742
          0.52817702293396 0.32367101311683655 -0.785027027130127 0.5142239928245544 0.29197999835014343 -0.8064249753952026
          -0.06960400193929672 0.44644999504089355 -0.892096996307373 -0.6237990260124207 0.5468819737434387 -0.5583860278129578
          0.3138059973716736 0.37727200984954834 -0.8713160157203674 0.4602949917316437 0.3681359887123108 -0.8078399896621704
          -0.5100839734077454 0.6624789834022522 -0.5485759973526001 -0.18870599567890167 0.6688429713249207 -0.7190539836883545
          -0.5215110182762146 0.5936890244483948 -0.6128290295600891 -0.7615640163421631 0.3537830114364624 -0.543008029460907
          -0.8970670104026794 0.17485100030899048 -0.4058299958705902 -0.9579150080680847 -0.036607999354600906 -0.2847079932689667
          -0.9098060131072998 0.03486499935388565 -0.4135670065879822 -0.929610013961792 -0.06689999997615814 -0.3624210059642792
          -0.9706069827079773 -0.19982899725437164 -0.13413000106811523 -0.908827006816864 -0.06924799829721451 -0.41138601303100586
          -0.6626710295677185 -0.48859599232673645 0.5675749778747559 -0.9038119912147522 -0.40486299991607666 0.13859699666500092
          -0.9424880146980286 -0.3340350091457367 -0.01169199962168932 -0.8927090167999268 -0.4044319987297058 0.19875900447368622
          -0.8403239846229553 -0.42357200384140015 0.33829399943351746 -0.9623349905014038 -0.1986680030822754 -0.18558800220489502
          -0.9617689847946167 -0.21300500631332397 -0.17213000357151031 -0.454477995634079 -0.18551599979400635 0.8712249994277954
          -0.4306960105895996 -0.2740670144557953 0.8598769903182983 -0.5497360229492188 -0.339805006980896 0.7631000280380249
          -0.5270900130271912 -0.32556700706481934 0.7849730253219604 -0.36482399702072144 -0.4000360071659088 0.8407580256462097
          -0.4689669907093048 -0.44400501251220703 0.7634990215301514 -0.4251750111579895 0.036152999848127365 0.9043890237808228
          -0.4158659875392914 -0.06548699736595154 0.9070649743080139 -0.10835999995470047 -0.12284000217914581 0.9864929914474487
          0.8344759941101074 -0.017872000113129616 0.5507540106773376 0.7426090240478516 -0.12195800244808197 0.6585279703140259
          0.503150999546051 -0.20958800613880157 0.8383989930152893 0.3162130117416382 -0.22574099898338318 0.921438992023468
          0.16839300096035004 -0.2084439992904663 0.9634289741516113 0.9370440244674683 0.031975001096725464 0.34774500131607056
          0.8942779898643494 -0.0034129999112337828 0.44749900698661804 0.9797940254211426 0.11756200343370438 0.16181300580501556
          0.9473109841346741 0.07194700092077255 0.3121289908885956 0.7001720070838928 0.28411000967025757 -0.6550130248069763
          0.6853799819946289 0.35831698775291443 -0.6339259743690491 0.7727749943733215 0.39839398860931396 -0.49406498670578003
          0.8653240203857422 0.36670199036598206 -0.3416779935359955 0.9619529843330383 0.23612500727176666 -0.1374479979276657
          0.9792919754981995 0.1941930055618286 -0.057245999574661255 0.982653021812439 0.17986400425434113 0.0451899990439415
          0.5060080289840698 0.32610398530960083 -0.7985060214996338 0.5452700257301331 0.3353169858455658 -0.7682729959487915
          0.6261510252952576 0.26854899525642395 -0.7319949865341187 0.12169499695301056 0.46108999848365784 -0.8789690136909485
          -0.16686999797821045 0.5805230140686035 -0.7969610095024109 -0.5057039856910706 0.568041980266571 -0.6493020057678223
          -0.45076900720596313 0.5209429860115051 -0.7248619794845581 0.09016600251197815 0.6135870218276978 -0.7844619750976562
          -0.5062659978866577 0.41739800572395325 -0.7546349763870239 -0.6039609909057617 0.3158009946346283 -0.7317799925804138
          -0.8391439914703369 0.2565479874610901 -0.4796049892902374 -0.8479179739952087 0.15152299404144287 -0.5080119967460632
          -0.8856469988822937 0.04426699876785278 -0.4622440040111542 -0.9188629984855652 0.0037159998901188374 -0.39455801248550415
          -0.4053339958190918 -0.5388429760932922 0.7384799718856812 -0.544152021408081 -0.5333849787712097 0.6476110219955444
          -0.9475569725036621 -0.269879013299942 -0.1711750030517578 -0.9215909838676453 -0.3541249930858612 -0.158951997756958
          -0.8131129741668701 -0.5402039885520935 0.2168560028076172 -0.948403000831604 -0.16282899677753448 -0.2720640003681183
          -0.9356110095977783 -0.13176199793815613 -0.32752200961112976 -0.922996997833252 -0.17048099637031555 -0.3449830114841461
          -0.0781409963965416 -0.24623200297355652 0.9660559892654419 -0.19523799419403076 -0.26569798588752747 0.9440799951553345
          -0.29335299134254456 -0.32144099473953247 0.9003440141677856 -0.05313999950885773 -0.3823089897632599 0.9225050210952759
          -0.3692069947719574 -0.4459089934825897 0.8153839707374573 -0.2769950032234192 -0.4858720004558563 0.8289769887924194
          0.8411499857902527 -0.05711900070309639 0.5377770066261292 0.5644639730453491 -0.16314099729061127 0.8091760277748108
          0.8416950106620789 -0.0798489972949028 0.534017026424408 0.72148197889328 -0.1577409952878952 0.6742269992828369
          0.3926999866962433 -0.2725459933280945 0.878354012966156 0.17130300402641296 -0.24117299914360046 0.9552440047264099
          0.15564100444316864 -0.31032800674438477 0.9378020167350769 0.8994640111923218 -0.05439800024032593 0.43359699845314026
          0.9507709741592407 0.05233699828386307 0.3054420053958893 0.971576988697052 0.058538999408483505 0.2293729931116104
          0.516821026802063 0.47060099244117737 -0.7151430249214172 0.9122769832611084 0.2969309985637665 -0.2821039855480194
          0.9801710247993469 0.19064900279045105 -0.05401099845767021 0.9897170066833496 0.09740599989891052 0.10475099831819534
          0.3641420006752014 0.395904004573822 -0.8430070281028748 0.5386009812355042 0.3793649971485138 -0.7523239850997925
          0.020997999235987663 0.6003320217132568 -0.7994750142097473 -0.10855700075626373 0.5190860033035278 -0.8478000164031982
          0.10848599672317505 0.5391049981117249 -0.8352220058441162 0.20708900690078735 0.6120460033416748 -0.7632259726524353