<?xml version="1.0"?>
<VTKFile type="PolyData" version="0.1" byte_order="LittleEndian" header_type="UInt32" compressor="vtkZLibDataCompressor">
  <PolyData>
    <Piece NumberOfPoints="5434" NumberOfVerts="0" NumberOfLines="0" NumberOfStrips="0" NumberOfPolys="9510">
      <PointData Normals="Normals">
        <DataArray type="Float32" Name="Normals" NumberOfComponents="3" format="ascii" RangeMin="0.9999992431176152" RangeMax="1.0000007745805088">
          0.9029139876365662 0.32594799995422363 0.2801859974861145 0.7555209994316101 0.2689250111579895 0.597383975982666
          0.9370869994163513 0.34193000197410583 0.07037600129842758 0.9363899827003479 0.34009501338005066 -0.08665800094604492
          0.5674539804458618 0.6722180247306824 -0.47551900148391724 0.22097499668598175 0.5710639953613281 -0.7906050086021423
          0.4852069914340973 0.8703910112380981 -0.08362700045108795 0.37108200788497925 0.9280440211296082 -0.03214100003242493
          0.899262011051178 0.37109100818634033 -0.23155799508094788 0.7753679752349854 -0.1783279925584793 -0.6058089733123779
          0.9775609970092773 -0.11223799735307693 0.17826099693775177 0.7380980253219604 0.3046729862689972 0.601984977722168
          0.8347709774971008 0.34476199746131897 -0.4292980134487152 0.9157170057296753 0.3779599964618683 -0.13640999794006348
          0.35662999749183655 0.9293609857559204 -0.09541299939155579 0.8991569876670837 0.37094399333000183 0.2322009950876236
          0.3472740054130554 0.9234690070152283 0.16311199963092804 0.24549600481987 0.10128399729728699 -0.9640920162200928
          -0.028689999133348465 0.932237982749939 -0.36070701479911804 -0.39759498834609985 0.33211401104927063 -0.8553469777107239
          0.15633100271224976 0.5917080044746399 -0.790848970413208 0.5364050269126892 0.7113010287284851 -0.45422500371932983
          0.5365020036697388 0.7113080024719238 -0.45410001277923584 0.15648099780082703 0.5917810201644897 -0.7907649874687195
          -0.39750200510025024 0.3322109878063202 -0.855351984500885 0.6346619725227356 0.26134198904037476 -0.727258026599884
          0.9228469729423523 0.26459801197052 0.27989399433135986 0.7723900079727173 0.21752500534057617 0.5967389941215515
          0.9578980207443237 0.27834200859069824 0.0703980028629303 0.9889019727706909 -0.126677006483078 -0.0776280015707016
          0.6123909950256348 0.6325610280036926 -0.4741770029067993 0.26110801100730896 0.5550159811973572 -0.7897970080375671
          0.5449169874191284 0.8342790007591248 -0.08393300324678421 0.9890429973602295 -0.1419380009174347 -0.04058099910616875
          0.9218360185623169 0.31108999252319336 -0.2311760038137436 0.7612460255622864 -0.22978000342845917 -0.6063870191574097
          0.9677690267562866 -0.17776699364185333 0.17838500440120697 0.7572050094604492 0.2551569938659668 0.6012780070304871
          0.8557299971580505 0.2882649898529053 -0.4296860098838806 0.9386870265007019 0.31674399971961975 -0.13616199791431427
          0.9810109734535217 -0.15178099274635315 -0.12074799835681915 0.8736270070075989 -0.4591990113258362 0.160971000790596
          0.9218029975891113 0.3106920123100281 0.23184199631214142 0.7608479857444763 -0.23045100271701813 0.6066319942474365
          0.7047960162162781 -0.6990759968757629 -0.12064500153064728 0.5143439769744873 -0.33883601427078247 -0.7878069877624512
          0.8745740056037903 -0.1792600005865097 -0.4505389928817749 0.25194400548934937 0.08522500097751617 -0.9639819860458374
          0.8745899796485901 -0.1791979968547821 -0.45053398609161377 0.5144240260124207 -0.33876198530197144 -0.7877870202064514
          0.7049430012702942 -0.6989139914512634 -0.12072300165891647 0.6897280216217041 0.23242700099945068 0.6857500076293945
          0.9409149885177612 0.19110800325870514 0.2795650064945221 0.7875509858131409 0.1562819927930832 0.5961040258407593
          0.9768649935722351 0.20195800065994263 0.07034599781036377 0.975633978843689 -0.20521999895572662 -0.07761500030755997
          0.6621270179748535 0.5813189744949341 -0.47292399406433105 0.3069410026073456 0.532181978225708 -0.7890310287475586
          0.6112189888954163 0.7869539856910706 -0.0843529999256134 0.974698007106781 -0.2197979986667633 -0.04065199941396713
          0.9433180093765259 0.23847299814224243 -0.23082700371742249 0.7398639917373657 -0.2899090051651001 -0.6070860028266907
          0.9506239891052246 -0.25377601385116577 0.17863699793815613 0.7751880288124084 0.19612500071525574 0.6005150079727173
          0.8750810027122498 0.2219260036945343 -0.43009498715400696 0.9605000019073486 0.24280300736427307 -0.1359650045633316
          0.9659010171890259 -0.22895899415016174 -0.12088599801063538 0.8334810137748718 -0.5285009741783142 0.1612360030412674
          0.9431719779968262 0.2383890002965927 0.2315090000629425 0.7395640015602112 -0.290134996175766 0.6073439717292786
          0.6446359753608704 -0.7547879815101624 -0.12140300124883652 0.484156996011734 -0.3790090084075928 -0.7886340022087097
          0.8573300242424011 -0.2480739951133728 -0.45104900002479553 0.25814899802207947 0.06543800234794617 -0.963886022567749
          0.8573669791221619 -0.24803699553012848 -0.4509980082511902 0.4842439889907837 -0.37897899746894836 -0.7885950207710266
          0.6447629928588867 -0.7546899914741516 -0.12134599685668945 0.7062039971351624 0.17825500667095184 0.6852020025253296
          0.9586160182952881 0.05585400015115738 0.2791689932346344 0.8021259903907776 0.04264499992132187 0.5956310033798218
          0.9956259727478027 0.06182200089097023 0.0700559988617897 0.9358710050582886 -0.3435490131378174 -0.07823000103235245
          0.7399389743804932 0.4800789952278137 -0.47118398547172546 0.3838469982147217 0.48169100284576416 -0.7878040075302124
          0.7204859852790833 0.6882399916648865 -0.08500400185585022 0.9334849715232849 -0.35628798604011536 -0.040793001651763916
          0.9674490094184875 0.10442700237035751 -0.23051699995994568 0.6890220046043396 -0.3925029933452606 -0.609254002571106
          0.9045429825782776 -0.3867950141429901 0.17941999435424805 0.7955440282821655 0.08564399927854538 0.5998119711875916
          0.897354006767273 0.09705899655818939 -0.43050599098205566 0.985023021697998 0.10618499666452408 -0.13584500551223755
          0.9232649803161621 -0.36445099115371704 -0.12148000299930573 0.7467039823532104 -0.6451230049133301 0.16201399266719818
          0.9672880172729492 0.10431700199842453 0.23123900592327118 0.688746988773346 -0.3928470015525818 0.6093429923057556
          0.5237380266189575 -0.8430240154266357 -0.12251400202512741 0.42104199528694153 -0.4446829855442047 -0.7905570268630981
          0.8122109770774841 -0.36779600381851196 -0.4528129994869232 0.2650989890098572 0.02883400022983551 -0.9637899994850159
          0.8122169971466064 -0.3678390085697174 -0.452767014503479 0.4210070073604584 -0.4447380006313324 -0.7905449867248535
          0.5236369967460632 -0.843110978603363 -0.12234699726104736 0.724744975566864 0.07795400172472 0.6845930218696594
          0.9598810076713562 0.02651200070977211 0.27915099263191223 0.8030440211296082 0.017914000898599625 0.5956500172615051
          0.9970660209655762 0.031217999756336212 0.06989700347185135 0.9246870279312134 -0.37257298827171326 -0.0783810019493103
          0.7547199726104736 0.4568359851837158 -0.4708479940891266 0.3992980122566223 0.4693959951400757 -0.7875459790229797
          0.7420340180397034 0.6649370193481445 -0.08511299639940262 0.9220679998397827 -0.3848550021648407 -0.04095799848437309
          0.9701899886131287 0.0751269981265068 -0.23040500283241272 0.6761850118637085 -0.4135949909687042 -0.6096829771995544
          0.8921390175819397 -0.41448700428009033 0.1796880066394806 0.7978000044822693 0.061445001512765884 0.5997819900512695
          0.8998960256576538 0.06958699971437454 -0.4305169880390167 0.9877899885177612 0.07623899728059769 -0.13585999608039856
          0.9115560054779053 -0.392751008272171 -0.12170200049877167 0.7258080244064331 -0.6684889793395996 0.16225099563598633
          0.9700350165367126 0.07522699981927872 0.23102599382400513 0.6758080124855042 -0.4138509929180145 0.6099269986152649
          0.49571800231933594 -0.8597850203514099 -0.12261100113391876 0.4061580002307892 -0.4576979875564575 -0.7909160256385803
          0.8002889752388 -0.39263099431991577 -0.4531860053539276 0.26589399576187134 0.020912999287247658 -0.9637759923934937
          0.8003389835357666 -0.3925839960575104 -0.4531390070915222 0.40627598762512207 -0.4576660096645355 -0.7908740043640137
          0.4959160089492798 -0.859673023223877 -0.12259099632501602 0.7267770171165466 0.056161001324653625 0.6845740079879761
          -0.663902997970581 0.22809000313282013 0.7121850252151489 0.797124981880188 -0.022731000557541847 0.6033869981765747
          -0.9839779734611511 0.16430899500846863 -0.06920500099658966 -0.20870499312877655 0.8357999920845032 -0.5078200101852417
          -0.11262699961662292 -0.9771530032157898 0.18024200201034546 -0.4876059889793396 -0.37882301211357117 0.7865960001945496
          0.16677500307559967 -0.5525810122489929 0.8166030049324036 -0.4245400130748749 0.9050430059432983 0.02573000080883503
          0.09777899831533432 0.9707919955253601 -0.21909700334072113 0.4640769958496094 0.8108469843864441 0.3565959930419922
          -0.006823999807238579 0.788877010345459 0.6145129799842834 0.7943260073661804 -0.09402800351381302 0.6001710295677185
          0.4273259937763214 -0.0507269985973835 0.9026730060577393 -0.9838719964027405 0.11607100069522858 0.13610400259494781
          -0.8159540295600891 0.5648970007896423 0.12292400002479553 -0.5742980241775513 0.8020579814910889 -0.16396500170230865
          -0.5741779804229736 0.8021519780158997 -0.16392700374126434 -0.5770450234413147 0.5388060212135315 -0.6137639880180359
          -0.30515700578689575 0.9443020224571228 0.12317600101232529 -0.3014490008354187 0.5281339883804321 0.7938529849052429
          -0.7049229741096497 0.5426470041275024 0.45674699544906616 -0.2645440101623535 0.030859999358654022 0.9638800024986267
          -0.7047780156135559 0.542697012424469 0.45691001415252686 -0.3011769950389862 0.5281090140342712 0.7939730286598206
          -0.3047010004520416 0.9444239735603333 0.12337300181388855 -0.7235469818115234 0.0858440026640892 -0.6849169731140137
          -0.7075380086898804 0.4510450065135956 0.5440120100975037 0.8565800189971924 -0.056984998285770416 0.512857973575592
          -0.949633002281189 0.3030959963798523 -0.07956500351428986 -0.10681000351905823 0.8865470290184021 -0.4501410126686096
          -0.4555380046367645 -0.8679180145263672 0.19799600541591644 -0.6243100166320801 -0.24827800691127777 0.7406719923019409
          0.06497500091791153 -0.5495179891586304 0.8329520225524902 -0.28722599148750305 0.957617998123169 0.02163200080394745
          0.2755129933357239 0.9435189962387085 -0.18402400612831116 0.5514619946479797 0.7468219995498657 0.37168100476264954
          0.16839699447155 0.8161219954490662 0.5527989864349365 0.8350780010223389 -0.19192799925804138 0.5155659914016724
          0.4635249972343445 -0.10675299912691116 0.8796300292015076 -0.9684919714927673 0.22251200675964355 0.1118519976735115
          -0.7483199834823608 0.6551610231399536 0.10383199900388718 -0.46790599822998047 0.87260502576828 -0.1400880068540573
          -0.4678660035133362 0.8726400136947632 -0.14000500738620758 -0.553725004196167 0.6135889887809753 -0.562936007976532
          -0.22040699422359467 0.9603409767150879 0.1707790046930313 -0.2515139877796173 0.57504802942276 0.7784990072250366
          -0.6687210202217102 0.6296190023422241 0.39546599984169006 -0.3079319894313812 0.07035200297832489 0.9488040208816528
          -0.6686400175094604 0.6296030282974243 0.3956269919872284 -0.25138500332832336 0.5749660134315491 0.7786009907722473
          -0.22022800147533417 0.960328996181488 0.1710759997367859 -0.7684260010719299 0.17662200331687927 -0.6150820255279541
          -0.6441929936408997 0.2736090123653412 0.7142500281333923 0.7937039732933044 -0.07486599683761597 0.6036800146102905
          -0.9707249999046326 0.2301120012998581 -0.06885100156068802 -0.13597799837589264 0.8516489863395691 -0.5061650276184082
          -0.3669759929180145 -0.929332971572876 0.04084999859333038 -0.5985069870948792 -0.33113500475883484 0.7294780015945435
          0.12742400169372559 -0.5614619851112366 0.8176329731941223 -0.3591490089893341 0.932919979095459 0.02591400034725666
          0.16831299662590027 0.9609969854354858 -0.2194419950246811 0.4089460074901581 0.8721140027046204 0.2686629891395569
          0.049949999898672104 0.7869129776954651 0.6150389909744263 0.7859290242195129 -0.14644399285316467 0.6007239818572998
          0.42264100909233093 -0.07907400280237198 0.9028409719467163 -0.9739609956741333 0.18125200271606445 0.13619300723075867
          -0.7757859826087952 0.6188259720802307 0.12332700192928314 -0.5133559703826904 0.8426340222358704 -0.16258199512958527
          -0.5164870023727417 0.8403180241584778 -0.16463899612426758 -0.602491021156311 0.5821790099143982 -0.5459610223770142
          -0.3459930121898651 0.910830020904541 0.22511699795722961 -0.2555220127105713 0.5449560284614563 0.7985810041427612
          -0.661607027053833 0.5894590020179749 0.46348100900650024 -0.36096200346946716 0.06678900122642517 0.9301859736442566
          -0.6657620072364807 0.5888339877128601 0.458296000957489 -0.2626839876174927 0.5467510223388672 0.7950220108032227
          -0.3561440110206604 0.9087290167808533 0.2176540046930313 -0.7835119962692261 0.14612199366092682 -0.6039509773254395
          -0.655597984790802 0.32473498582839966 0.6817169785499573 0.7938830256462097 -0.07987699657678604 0.6028010249137878
          -0.9612119793891907 0.26501399278640747 -0.07642000168561935 -0.12481799721717834 0.8503929972648621 -0.5111290216445923
          -0.25071701407432556 -0.9541059732437134 0.1637749969959259 -0.5398820042610168 -0.3162130117416382 0.7800880074501038
          0.09462299942970276 -0.5581110119819641 0.8243529796600342 -0.3245199918746948 0.945518970489502 0.026107000187039375
          0.20726700127124786 0.9533119797706604 -0.21963000297546387 0.5517889857292175 0.7549830079078674 0.35430100560188293
          0.08202499896287918 0.7831799983978271 0.6163610219955444 0.781466007232666 -0.16752800345420837 0.6010370254516602
          0.42027100920677185 -0.09032200276851654 0.902891993522644 -0.9687470197677612 0.20723199844360352 0.13631999492645264
          -0.7569490075111389 0.6415680050849915 0.12416999787092209 -0.48734501004219055 0.8572930097579956 -0.1659640073776245
          -0.48726901412010193 0.8573369979858398 -0.1659580022096634 -0.5176830291748047 0.5913990139961243 -0.6182640194892883
          -0.19873499870300293 0.9721840023994446 0.12394800037145615 -0.24169600009918213 0.5531839728355408 0.7972270250320435
          -0.6466649770736694 0.6077989935874939 0.4608739912509918 -0.2600330114364624 0.055358998477458954 0.9640120267868042
          -0.646573007106781 0.6078270077705383 0.46096599102020264 -0.24152299761772156 0.5531560182571411 0.797298014163971
          -0.19842499494552612 0.9722359776496887 0.1240369975566864 -0.7117800116539001 0.152755007147789 -0.685591995716095
          -0.6962400078773499 0.4671350121498108 0.5450090169906616 0.854997992515564 -0.07636699825525284 0.5129780173301697
          -0.9425259828567505 0.3245239853858948 -0.07955999672412872 -0.08442699909210205 0.8889009952545166 -0.4502519965171814
          -0.4755449891090393 -0.8570539951324463 0.19828100502490997 -0.6298019886016846 -0.23383399844169617 0.7407230138778687
          0.052111998200416565 -0.5505260229110718 0.8331900238990784 -0.26437801122665405 0.9641759991645813 0.02166599966585636
          0.29836198687553406 0.9365450143814087 -0.18401899933815002 0.5693709850311279 0.7333120107650757 0.3715769946575165
          0.1879740059375763 0.8116539716720581 0.5530679821968079 0.8303750157356262 -0.21079200506210327 0.5157949924468994
          0.46086999773979187 -0.11721300333738327 0.8796929717063904 -0.9632269740104675 0.24425199627876282 0.1119609996676445
          -0.733148992061615 0.6720700263977051 0.10399500280618668 -0.4470919966697693 0.8834350109100342 -0.14018400013446808
          -0.44723400473594666 0.8833649754524231 -0.140174001455307 -0.5390470027923584 0.6260700225830078 -0.5634400248527527
          -0.1966869980096817 0.9654080271720886 0.1711760014295578 -0.23732000589370728 0.5803769826889038 0.779000997543335
          -0.6536880135536194 0.6447700262069702 0.3961859941482544 -0.3061339855194092 0.07728999853134155 0.9488459825515747
          -0.653810977935791 0.6447200179100037 0.39606401324272156 -0.23759199678897858 0.580420970916748 0.7788839936256409
          -0.19715699553489685 0.9653310179710388 0.17107200622558594 -0.7641329765319824 0.19385500252246857 -0.6152399778366089
          -0.8409000039100647 0.07364799827337265 -0.5361559987068176 -0.9833260178565979 0.03624799847602844 -0.17820300161838531
          -0.8729389905929565 0.4871860146522522 0.0250489991158247 0.27312400937080383 0.9480559825897217 -0.16307100653648376
          0.36153000593185425 0.7033299803733826 -0.6120650172233582 -0.8736550211906433 -0.4414120018482208 -0.20465399324893951
          -0.17444899678230286 -0.8860380053520203 -0.4295389950275421 -0.3827750086784363 -0.1930609941482544 -0.9034439921379089
          -0.10784699767827988 -0.600600004196167 -0.7922419905662537 -0.2966209948062897 -0.9544489979743958 0.0322830006480217
          -0.8842549920082092 -0.44653698801994324 0.13673800230026245 -0.992654025554657 0.009046000428497791 0.12065199762582779
          -0.891398012638092 0.05172500014305115 0.4502590000629425 -0.5600500106811523 0.259907990694046 0.7866330146789551
          -0.004925000015646219 0.5128380060195923 0.8584709763526917 0.2729699909687042 0.9479590058326721 0.16389100253582
          0.7941650152206421 -0.5992730259895325 -0.10086700320243835 0.9318130016326904 -0.32538899779319763 0.16076600551605225
          0.7871149778366089 -0.11765599995851517 -0.6054810285568237 0.42375001311302185 -0.2994149923324585 -0.8548600077629089
          0.23647400736808777 0.1194780021905899 -0.9642639756202698 -0.47913500666618347 -0.7500460147857666 0.45591801404953003
          -0.10839100182056427 -0.6009259819984436 0.7919219732284546 0.42322298884391785 -0.299919992685318 0.8549450039863586
          0.7867469787597656 -0.11805099993944168 0.6058819890022278 0.6486200094223022 0.3272649943828583 0.6871600151062012
          -0.6833140254020691 0.1703909933567047 0.7099639773368835 0.7962340116500854 0.04262999817728996 0.6034839749336243
          -0.994268000125885 0.08123300224542618 -0.06952100247144699 -0.2845650017261505 0.8133469820022583 -0.5074340105056763
          -0.024639999493956566 -0.9835399985313416 0.1790039986371994 -0.45225200057029724 -0.41964399814605713 0.786998987197876
          0.21559199690818787 -0.5378379821777344 0.815015971660614 -0.503462016582489 0.8636379837989807 0.025613000616431236
          0.008595000021159649 0.9757159948348999 -0.21887199580669403 0.3884409964084625 0.8492869734764099 0.3575249910354614
          -0.07880699634552002 0.7857540249824524 0.6134979724884033 0.7996119856834412 -0.027511000633239746 0.5998870134353638
          0.43024900555610657 -0.01512799970805645 0.9025830030441284 -0.9901450276374817 0.03379800170660019 0.13590699434280396
          -0.8611069917678833 0.49349701404571533 0.12229199707508087 -0.6423659920692444 0.7488210201263428 -0.16319499909877777
          -0.6423630118370056 0.7488300204277039 -0.16316600143909454 -0.6223940253257751 0.4879170060157776 -0.6120160222053528
          -0.38893601298332214 0.913017988204956 0.12299200147390366 -0.3480899930000305 0.5005670189857483 0.792631983757019
          -0.7496259808540344 0.4806089997291565 0.45505499839782715 -0.26638901233673096 0.008923999965190887 0.9638239741325378
          -0.7495989799499512 0.48061099648475647 0.4550980031490326 -0.34804800152778625 0.5005549788475037 0.7926589846611023
          -0.3888790011405945 0.9130319952964783 0.12307099997997284 -0.728422999382019 0.02526400052011013 -0.6846619844436646
          0.9395380020141602 0.1997150033712387 0.2781760096549988 0.7918570041656494 0.16379299759864807 0.5883319973945618
          0.9746400117874146 0.21135200560092926 0.07353200018405914 0.9776139855384827 -0.1976889967918396 -0.0720440000295639
          0.670635998249054 0.5834559798240662 -0.45806801319122314 0.3257629871368408 0.5329819917678833 -0.7809020280838013
          0.6239609718322754 0.7769680023193359 -0.08362399786710739 0.9772689938545227 -0.20813600718975067 -0.04031499847769737
          0.9396079778671265 0.25655698776245117 -0.22653000056743622 0.7426270246505737 -0.2810730040073395 -0.6078670024871826
          0.9536020159721375 -0.242126002907753 0.17893800139427185 0.7773190140724182 0.2120800018310547 0.5922809839248657
          0.8687620162963867 0.23737099766731262 -0.4346350133419037 0.956076979637146 0.260998010635376 -0.13340699672698975
          0.9686390161514282 -0.2173530012369156 -0.12039999663829803 0.8340399861335754 -0.5275959968566895 0.16130299866199493
          0.9394279718399048 0.25642600655555725 0.22742199897766113 0.7422029972076416 -0.2814910113811493 0.6081920266151428
          0.641497015953064 -0.7565699815750122 -0.12682600319385529 0.48157599568367004 -0.37667399644851685 -0.791329026222229
          0.8610460162162781 -0.23755699396133423 -0.44962799549102783 0.2614060044288635 0.07178699970245361 -0.962556004524231
          0.8609949946403503 -0.23761500418186188 -0.44969600439071655 0.4814450144767761 -0.3767249882221222 -0.7913839817047119
          0.6412969827651978 -0.756729006767273 -0.12688200175762177 0.7085509896278381 0.1934870034456253 0.6786149740219116
          0.9491890072822571 -0.08517000079154968 0.3029620051383972 0.8084560036659241 -0.0805250033736229 0.5830219984054565
          0.9898769855499268 -0.08125200122594833 0.11637099832296371 0.898576021194458 -0.4383629858493805 -0.019972000271081924
          0.8518840074539185 0.33997198939323425 -0.39838701486587524 0.5411180257797241 0.3853830099105835 -0.7474430203437805
          0.868835985660553 0.4950990080833435 -0.0008290000259876251 0.9011639952659607 -0.4316500127315521 -0.0397690013051033
          0.9738510251045227 0.022280000150203705 -0.22609299421310425 0.6620709896087646 -0.4475480020046234 -0.6011340022087097
          0.8710730075836182 -0.4584760069847107 0.17615899443626404 0.8062520027160645 0.018286999315023422 0.5912899971008301
          0.9000849723815918 0.02064099907875061 -0.4352259933948517 0.9908249974250793 0.0226879995316267 -0.13323600590229034
          0.8908600211143494 -0.43849700689315796 -0.11870100349187851 0.6947339773178101 -0.7016280293464661 0.15830999612808228
          0.9736779928207397 0.02218399941921234 0.22684499621391296 0.6616650223731995 -0.4478060007095337 0.6013889908790588
          0.46419599652290344 -0.8767560124397278 -0.12578000128269196 0.3905929923057556 -0.47861599922180176 -0.7863609790802002
          0.784492015838623 -0.433135986328125 -0.44380900263786316 0.27142199873924255 0.006393999792635441 -0.9624390006065369
          0.7844709753990173 -0.43312299251556396 -0.44385799765586853 0.39057400822639465 -0.4785909950733185 -0.7863860130310059
          0.4641909897327423 -0.8767420053482056 -0.12589900195598602 0.7350490093231201 0.016645999625325203 0.67781001329422
          -0.5760800242424011 0.748100996017456 0.3293589949607849 0.8107830286026001 -0.05994199961423874 0.582269012928009
          -0.8080220222473145 0.5727310180664062 -0.1381250023841858 -0.03612099960446358 0.8689380288124084 -0.4936020076274872
          -0.7656360268592834 -0.6395859718322754 -0.06878700107336044 -0.6845179796218872 -0.007880999706685543 0.728954017162323
          -0.12182900309562683 -0.4566679894924164 0.8812559843063354 -0.12201900035142899 0.9922130107879639 0.025015000253915787
          0.38270801305770874 0.8980569839477539 -0.21685799956321716 0.6851469874382019 0.631525993347168 0.3629719913005829
          0.23158599436283112 0.7587670087814331 0.6088029742240906 0.7161049842834473 -0.3625899851322174 0.5964249968528748
          0.3856950104236603 -0.19558599591255188 0.901656985282898 -0.8841840028762817 0.4472079873085022 0.13499300181865692
          -0.5809670090675354 0.8051000237464905 0.11954399943351746 -0.28890201449394226 0.9441199898719788 -0.15865999460220337
          -0.28878501057624817 0.9441570043563843 -0.15865300595760345 -0.3738420009613037 0.7054979801177979 -0.6020920276641846
          -0.004100999794900417 0.9924370050430298 0.12268500030040741 -0.12322500348091125 0.6061819791793823 0.785722017288208
          -0.4887320101261139 0.7498440146446228 0.44595301151275635 -0.2396640032529831 0.12083700299263 0.9633060097694397
          -0.4886139929294586 0.7498630285263062 0.44605201482772827 -0.12302500009536743 0.6061170101165771 0.7858030200004578
          -0.0037249999586492777 0.9924280047416687 0.12276999652385712 -0.6525110006332397 0.3304600119590759 -0.6819279789924622
          -0.7640069723129272 0.4534739851951599 0.4589709937572479 0.8055959939956665 0.06319499760866165 0.5890859961509705
          -0.9556549787521362 0.27090001106262207 -0.11548600345849991 -0.24607299268245697 0.8285120129585266 -0.5030080080032349
          -0.4016079902648926 -0.9146869778633118 0.04537399858236313 -0.6063119769096375 -0.2715660035610199 0.7474210262298584
          0.0595720000565052 -0.5223060250282288 0.8506749868392944 -0.38684698939323425 0.9218040108680725 0.025039000436663628
          0.13578000664710999 0.9670159816741943 -0.21550999581813812 0.4917069971561432 0.7925649881362915 0.36064600944519043
          0.02661300078034401 0.793757975101471 0.6076509952545166 0.7942309975624084 -0.13609600067138672 0.5921779870986938
          0.42846399545669556 -0.07365000247955322 0.900551974773407 -0.9768630266189575 0.1670379936695099 0.1335570067167282
          -0.7881240248680115 0.6037150025367737 0.11995399743318558 -0.5394049882888794 0.8267130255699158 -0.159961998462677
          -0.5394769906997681 0.8266689777374268 -0.15994800627231598 -0.5579140186309814 0.5676789879798889 -0.6053699851036072
          -0.272832989692688 0.9537050127983093 0.12652400135993958 -0.2833220064640045 0.5445020198822021 0.7894589900970459
          -0.6828389763832092 0.5773209929466248 0.4476949870586395 -0.26711899042129517 0.04532099887728691 0.9625970125198364
          -0.6829040050506592 0.5772830247879028 0.44764500856399536 -0.28345900774002075 0.5444980263710022 0.7894129753112793
          -0.2730810046195984 0.9536359906196594 0.12651200592517853 -0.7240750193595886 0.1240840032696724 -0.6784679889678955
          0.8729190230369568 0.4050689935684204 0.2719059884548187 0.7346259951591492 0.33632099628448486 0.58924800157547
          0.9036809802055359 0.4235360026359558 0.06307200342416763 0.996275007724762 0.011486000381410122 -0.08546499907970428
          0.5194929838180542 0.7148799896240234 -0.46805301308631897 0.1932860016822815 0.5874729752540588 -0.7858219742774963
          0.43008100986480713 0.8970000147819519 -0.10208900272846222 0.9991599917411804 0.0035540000535547733 -0.040828999131917953
          0.8612509965896606 0.4549730122089386 -0.22637400031089783 0.7801229953765869 -0.12071000039577484 -0.6138709783554077
          0.9827269911766052 -0.035739000886678696 0.18157599866390228 0.7125570178031921 0.376473993062973 0.5920559763908386
          0.7962679862976074 0.4205990135669708 -0.4348039925098419 0.8762739896774292 0.4629819989204407 -0.13338899612426758
          0.9924880266189575 -0.007763999979943037 -0.12209799885749817 0.9224680066108704 -0.34950700402259827 0.16400699317455292
          0.8610389828681946 0.45495501160621643 0.22721600532531738 0.7796769738197327 -0.12097100168466568 0.6143860220909119
          0.7741339802742004 -0.6197760105133057 -0.12882000207901 0.5405589938163757 -0.2714110016822815 -0.7963240146636963
          0.8889889717102051 -0.051500000059604645 -0.45502299070358276 0.23975999653339386 0.12663300335407257 -0.9625380039215088
          0.8890129923820496 -0.05146599933505058 -0.4549809992313385 0.5406249761581421 -0.2713730037212372 -0.7962920069694519
          0.7742230296134949 -0.619674026966095 -0.12877599895000458 0.6495969891548157 0.3431819975376129 0.678417980670929
          -0.7058730125427246 0.5501949787139893 0.4461280107498169 0.9021530151367188 0.17388300597667694 0.39482301473617554
          -0.9779300093650818 0.19480000436306 -0.07553599774837494 -0.051017001271247864 0.916746973991394 -0.39619699120521545
          -0.6218529939651489 -0.7493249773979187 0.22762100398540497 -0.6828060150146484 -0.17851699888706207 0.7084540128707886
          0.05409799888730049 -0.43941599130630493 0.8966529965400696 -0.2763800024986267 0.9608410000801086 0.019946999847888947
          0.3494209945201874 0.9234920144081116 -0.15832599997520447 0.5876070261001587 0.7187529802322388 0.37163400650024414
          0.2924189865589142 0.8228240013122559 0.48728999495506287 0.9012560248374939 -0.04633300006389618 0.43080198764801025
          0.5148789882659912 -0.02412799932062626 0.85692298412323 -0.9946150183677673 0.05111299827694893 0.09016100317239761
          -0.8339089751243591 0.5435720086097717 0.09552299976348877 -0.23499199748039246 0.9674249887466431 -0.09417100250720978
          -0.43138399720191956 0.8938549757003784 -0.12219499796628952 -0.31583699584007263 0.8574230074882507 -0.40629199147224426