<?xml version="1.0"?>
<VTKFile type="PolyData" version="0.1" byte_order="LittleEndian" header_type="UInt32" compressor="vtkZLibDataCompressor">
  <PolyData>
    <Piece NumberOfPoints="1459" NumberOfVerts="0" NumberOfLines="0" NumberOfStrips="0" NumberOfPolys="1796">
      <PointData Normals="Normals">
        <DataArray type="Float32" Name="Normals" NumberOfComponents="3" format="ascii" RangeMin="0.9999992204972852" RangeMax="1.0000007560479378">
          0.8439220190048218 -0.18684299290180206 0.5028769969940186 0.9041950106620789 -0.17743200063705444 0.3885209858417511
          0.9912940263748169 -0.12377700209617615 -0.044895999133586884 0.8984789848327637 -0.0759819969534874 0.4323909878730774
          0.8664230108261108 -0.3864240050315857 0.31620898842811584 0.8455100059509277 -0.4343990087509155 -0.31050100922584534
          0.6521350145339966 -0.23618200421333313 0.7203739881515503 0.6721600294113159 -0.537214994430542 0.5095109939575195
          0.9067299962043762 -0.31884801387786865 0.27600300312042236 0.9209690093994141 -0.38740700483322144 0.04162399843335152
          0.7590330243110657 -0.2800140082836151 -0.5877599716186523 0.8804519772529602 -0.2617740035057068 -0.3953210115432739
          0.9657549858093262 -0.2093220055103302 -0.15330199897289276 0.8573510050773621 -0.46800199151039124 -0.21429699659347534
          0.7457259893417358 -0.6503220200538635 -0.14482399821281433 0.9712370038032532 -0.09800899773836136 -0.2170110046863556
          0.7904800176620483 -0.2169249951839447 -0.5727869868278503 0.7042170166969299 -0.6464790105819702 0.29350200295448303
          0.8507890105247498 -0.5224379897117615 -0.056710999459028244 0.9919099807739258 -0.028279999271035194 -0.12375500053167343
          0.993116021156311 0.09378299862146378 -0.07017800211906433 0.9990580081939697 -0.04303999990224838 0.005541000049561262
          0.9596819877624512 -0.2791999876499176 0.032531000673770905 0.6762679815292358 0.7345730066299438 0.055358998477458954
          0.30083799362182617 0.9518330097198486 0.05925200134515762 0.6521109938621521 0.45899999141693115 -0.6033819913864136
          0.7036179900169373 0.7101290225982666 -0.0252470001578331 0.979278028011322 -0.1714400053024292 -0.1078139990568161
          0.896619975566864 -0.1315310001373291 -0.4228140115737915 0.1364399939775467 0.8526729941368103 -0.5043140053749084
          0.7801570296287537 -0.5096309781074524 0.36281099915504456 0.8917660117149353 -0.3631890118122101 -0.2699039876461029
          0.6863229870796204 -0.3840999901294708 0.6175990104675293 0.6662350296974182 0.4159870147705078 0.6189389824867249
          0.7855640053749084 -0.5443649888038635 -0.2942039966583252 0.9797809720039368 -0.1696310043334961 -0.1060900017619133
          0.9950270056724548 -0.0946659967303276 -0.03097200021147728 0.8755429983139038 -0.4683319926261902 0.11870100349187851
          0.7783849835395813 -0.5629870295524597 0.27778100967407227 0.7440320253372192 -0.6095349788665771 0.2736490070819855
          0.9503999948501587 -0.16812099516391754 0.26167601346969604 0.9777730107307434 0.2065030038356781 -0.0362979993224144
          0.9836680293083191 0.16508199274539948 -0.0717260017991066 0.9788349866867065 0.2032029926776886 0.02428700029850006
          0.9787669777870178 0.07090699672698975 -0.1923220008611679 -0.5443739891052246 0.7847980260848999 0.2962239980697632
          -0.27381399273872375 0.9497680068016052 -0.15154999494552612 -0.8607940077781677 0.36115598678588867 0.3586080074310303
          -0.6872950196266174 0.7007899880409241 -0.19110000133514404 -0.8693860173225403 0.37306100130081177 0.32402700185775757
          -0.2956889867782593 0.9269120097160339 0.2310909926891327 0.9342380166053772 -0.22722500562667847 0.2748979926109314
          0.9483469724655151 -0.22477799654006958 0.22385799884796143 0.8798829913139343 0.39424800872802734 0.26528099179267883
          -0.7532780170440674 0.5874410271644592 0.2957800030708313 -0.8220409750938416 0.5345550179481506 0.1962140053510666
          -0.7105919718742371 0.5191410183906555 0.4749230146408081 0.8293240070343018 -0.1890369951725006 0.5258200168609619
          0.9814779758453369 -0.027955999597907066 0.18952499330043793 0.8555960059165955 -0.46328800916671753 0.2309119999408722
          0.8858659863471985 -0.1804029941558838 0.4274289906024933 0.9881730079650879 -0.15322299301624298 -0.006126000080257654
          0.19530899822711945 0.7736080288887024 0.6028140187263489 0.8896409869194031 -0.43538299202919006 -0.13777199387550354
          0.9835799932479858 0.09306500107049942 0.1546259969472885 0.9236220121383667 -0.37524598836898804 -0.07818599790334702
          0.9685490131378174 -0.22044500708580017 -0.11539799720048904 0.7797719836235046 -0.6049969792366028 -0.1610410064458847
          0.8918520212173462 -0.35210299491882324 -0.2839440107345581 0.9343850016593933 -0.3496989905834198 -0.06808499991893768
          0.9662950038909912 -0.20978200435638428 -0.14921699464321136 0.9839490056037903 0.10393600165843964 -0.14506100118160248
          0.984607994556427 0.17459799349308014 -0.00786999985575676 0.9741320013999939 0.1830579936504364 0.13250400125980377
          0.961342990398407 0.051513999700546265 -0.2704930007457733 0.9583190083503723 0.12063000351190567 0.2589859962463379
          0.885595977306366 0.060026999562978745 -0.46055999398231506 0.9163770079612732 0.039788998663425446 -0.3983350098133087
          -0.8216130137443542 0.5697450041770935 -0.018504999577999115 -0.6998680233955383 0.6359949707984924 0.32510900497436523
          -0.8264579772949219 0.5426769852638245 -0.1498979926109314 -0.7338430285453796 0.6676120162010193 -0.12557199597358704
          -0.759227991104126 0.5708510279655457 -0.31257200241088867 0.9585049748420715 -0.26511600613594055 -0.10479400306940079
          0.9847919940948486 0.08085499703884125 -0.15377500653266907 0.1351879984140396 0.9902369976043701 0.03398500010371208
          -0.7369490265846252 0.6316630244255066 0.24064099788665771 -0.6867179870605469 0.43691399693489075 0.580968976020813
          -0.7713069915771484 0.4393340051174164 0.4605120122432709 -0.704479992389679 0.6991429924964905 -0.12209700047969818
          -0.748449981212616 0.6328960061073303 -0.19815300405025482 -0.5333989858627319 0.8449329733848572 -0.039680998772382736
          -0.6302229762077332 0.7741510272026062 0.05923900008201599 -0.8110719919204712 0.5549219846725464 0.18499800562858582
          0.5051140189170837 0.6604509949684143 -0.5555750131607056 0.9914849996566772 -0.0885929986834526 0.09544099867343903
          0.7855150103569031 -0.6033160090446472 -0.1377519965171814 0.7966619729995728 -0.5431119799613953 -0.2652519941329956
          0.9757530093193054 -0.20031100511550903 -0.08821199834346771 0.9601539969444275 -0.20643700659275055 -0.18838399648666382
          0.9086880087852478 -0.23268799483776093 -0.3466149866580963 0.9194110035896301 0.3386009931564331 -0.20008400082588196
          -0.693809986114502 0.502426028251648 -0.5159419775009155 0.9577419757843018 0.06964600086212158 0.2790699899196625
          0.9470710158348083 0.06320499628782272 0.31474098563194275 0.9361240267753601 -0.34958600997924805 0.03821700066328049
          0.9236220121383667 -0.37524598836898804 0.07818599790334702 0.9028109908103943 -0.3580560088157654 0.23817600309848785
          0.9070309996604919 -0.13875199854373932 -0.3975450098514557 0.8465620279312134 -0.08858899772167206 -0.5248669981956482
          0.854682981967926 -0.44729799032211304 -0.2635189890861511 0.9346680045127869 -0.22046400606632233 -0.2789109945297241
          0.7578169703483582 -0.23068000376224518 -0.6103289723396301 0.9774140119552612 0.05180799961090088 -0.20488500595092773
          0.9986990094184875 -0.05097699910402298 -0.0007910000276751816 0.9448040127754211 0.07155399769544601 -0.31972700357437134
          0.9767699837684631 -0.04368799924850464 0.20979100465774536 0.9459120035171509 0.06451500207185745 0.3179450035095215
          0.8777639865875244 0.08481399714946747 -0.47152701020240784 0.9404510259628296 0.07226300239562988 0.33215799927711487
          0.8724849820137024 0.09129499644041061 -0.4800359904766083 0.869225025177002 -0.008267000317573547 -0.4943479895591736
          0.8666939735412598 0.023271000012755394 -0.4982979893684387 0.9269329905509949 -0.19840200245380402 -0.31848400831222534
          0.8626800179481506 -0.2585020065307617 -0.4346959888935089 -0.7806730270385742 0.607695996761322 -0.14579200744628906
          -0.7402629852294922 0.4468269944190979 0.5023499727249146 -0.7212010025978088 0.6344540119171143 0.2780979871749878
          -0.57259202003479 0.7062109708786011 0.4164170026779175 -0.779338002204895 0.4831809997558594 -0.3989579975605011
          -0.7477229833602905 0.4122239947319031 -0.5205590128898621 -0.6066979765892029 0.6546139717102051 -0.450996994972229
          -0.5784689784049988 0.8156160116195679 0.011981000192463398 -0.7484509944915771 0.6585389971733093 0.07840900123119354
          -0.7609320282936096 0.425803005695343 -0.48956501483917236 -0.7148709893226624 0.3838520050048828 -0.5844810009002686
          -0.7892469763755798 0.5271270275115967 -0.3150019943714142 -0.7523030042648315 0.6371340155601501 0.16763100028038025
          0.7869560122489929 0.04675399884581566 -0.6152359843254089 -0.6713050007820129 0.6914029717445374 0.26704201102256775
          -0.7205029726028442 0.5801600217819214 0.3798559904098511 -0.8598039746284485 0.4695490002632141 0.20065200328826904
          -0.6893839836120605 0.5989580154418945 0.4074299931526184 -0.7305129766464233 0.6802330017089844 0.06028600037097931
          -0.7155190110206604 0.6856629848480225 0.13378900289535522 -0.7298060059547424 0.4988349974155426 0.46748998761177063
          -0.32345300912857056 0.7353249788284302 0.5955460071563721 0.9253590106964111 0.3584679961204529 -0.12333600223064423
          -0.6969379782676697 0.4757789969444275 0.5365740060806274 0.7832940220832825 -0.5874069929122925 0.20347699522972107
          0.9631339907646179 -0.2051129937171936 0.1740729957818985 0.9791839718818665 -0.17940199375152588 0.09494400024414062
          0.9647570252418518 -0.2216629981994629 0.14180399477481842 0.9692040085792542 0.0480009987950325 0.24153700470924377
          0.16267600655555725 0.9864479899406433 0.021383000537753105 -0.8309379816055298 0.524101972579956 -0.18670399487018585
          -0.6159449815750122 0.7170169949531555 -0.32634198665618896 0.528348982334137 0.845678985118866 0.07532700151205063
          0.9341139793395996 0.07113499939441681 0.3498150110244751 0.9446200132369995 0.054593998938798904 0.32359299063682556
          0.836866021156311 -0.2026830017566681 0.5085030198097229 0.8737159967422485 -0.09372399747371674 0.4773220121860504
          0.9103350043296814 -0.06976400315761566 0.4079509973526001 0.9358720183372498 -0.00802099984139204 0.35225000977516174
          0.6890289783477783 -0.44862499833106995 0.5691879987716675 0.9134190082550049 -0.12436600029468536 -0.3875559866428375
          0.9219520092010498 -0.08876100182533264 -0.3769960105419159 0.8963620066642761 -0.3749450147151947 -0.23653799295425415
          0.9800729751586914 -0.15915299952030182 -0.11886200308799744 0.8747109770774841 -0.4751549959182739 -0.09544000029563904
          0.9853349924087524 -0.1675730049610138 -0.032168999314308167 0.9806259870529175 -0.1397709995508194 -0.13725000619888306
          0.9628580212593079 -0.2700049877166748 -0.001294999965466559 0.9469659924507141 -0.09892100095748901 -0.3057299852371216
          0.9563159942626953 -0.25787800550460815 0.1376899927854538 0.8631089925765991 -0.050790999084711075 -0.5024570226669312
          0.9448829889297485 -0.10563500225543976 0.3098990023136139 0.9024310111999512 -0.04359100013971329 0.4286240041255951
          0.8033180236816406 -0.05730300024151802 -0.5927870273590088 0.8707209825515747 -0.1591780036687851 0.4653039872646332
          0.7011299729347229 0.4219230115413666 -0.5748029947280884 0.8140770196914673 0.002311999909579754 -0.5807520151138306
          0.7891709804534912 0.09155800193548203 -0.6073099970817566 0.8562150001525879 -0.35210898518562317 -0.3780420124530792
          0.7727890014648438 -0.147940993309021 -0.6171799898147583 0.7545350193977356 -0.5658100247383118 -0.33247101306915283
          0.7782379984855652 -0.6270440220832825 -0.03407000005245209 -0.7847189903259277 0.6159560084342957 -0.06938900053501129
          -0.7800629734992981 0.5867249965667725 -0.2173829972743988 -0.7264869809150696 0.6838099956512451 0.06797599792480469
          -0.593163013458252 0.6898559927940369 -0.41503798961639404 -0.8018900156021118 0.555446982383728 -0.22011299431324005
          -0.6855189800262451 0.6071159839630127 -0.4018389880657196 -0.7340199947357178 0.6570940017700195 -0.1715870052576065
          -0.6026780009269714 0.5946369767189026 0.532151997089386 -0.7568529844284058 0.6098549962043762 0.23505400121212006
          -0.5157349705696106 0.6047109961509705 0.6069120168685913 -0.8103989958763123 0.5855330228805542 0.02011200040578842
          -0.6314330101013184 0.39515700936317444 0.6671910285949707 -0.6722570061683655 0.3675380051136017 0.6426399946212769
          -0.5352349877357483 0.5177980065345764 0.6673889756202698 0.21144899725914001 0.7132359743118286 0.6682689785957336
          0.9862480163574219 0.06806600093841553 0.1506039947271347 0.8811140060424805 0.42730700969696045 -0.20260000228881836
          -0.615572988986969 0.5326210260391235 0.5808489918708801 0.8812069892883301 -0.15011900663375854 0.44826099276542664
          0.8307300209999084 -0.0888110026717186 0.5495449900627136 0.7514050006866455 -0.16844700276851654 0.6379780173301697
          0.7776650190353394 0.048994001001119614 0.6267669796943665 -0.6762009859085083 0.42851200699806213 -0.5992739796638489
          -0.718455970287323 0.5185149908065796 -0.4636409878730774 -0.2963249981403351 0.5952669978141785 -0.7468929886817932
          0.8649370074272156 0.4579960107803345 -0.20523899793624878 0.7827119827270508 0.058959998190402985 0.6195849776268005
          0.6918190121650696 0.20967799425125122 0.6909570097923279 0.8751479983329773 -0.24666500091552734 0.4162589907646179
          0.742222011089325 -0.11870700120925903 0.6595569849014282 0.6520249843597412 -0.5035399794578552 0.5668429732322693
          0.7471399903297424 -0.5486209988594055 0.37522798776626587 0.7818610072135925 -0.6185610294342041 0.07794500142335892
          0.7729759812355042 -0.20468899607658386 0.600508987903595 0.9005569815635681 -0.1510470062494278 0.4076550006866455
          0.7800520062446594 -0.4445430040359497 0.4403420090675354 0.8846610188484192 -0.11263799667358398 0.45242398977279663
          0.969851016998291 -0.1514360010623932 0.19093699753284454 0.945921003818512 -0.19725899398326874 0.25753000378608704
          0.9593110084533691 -0.10295499861240387 -0.26291099190711975 0.7601940035820007 -0.26924100518226624 -0.5912820100784302
          0.6823379993438721 0.14946599304676056 -0.7155939936637878 0.8132500052452087 -0.5818120241165161 -0.010893000289797783
          0.8601909875869751 -0.5099629759788513 -0.0029670000076293945 0.7647259831428528 -0.6032119989395142 -0.2265630066394806
          0.8648629784584045 -0.5013459920883179 0.02578599937260151 0.7299799919128418 -0.4286699891090393 -0.5323269963264465
          0.8169450163841248 -0.5210340023040771 0.24723400175571442 0.6722019910812378 -0.3091050088405609 -0.6727550029754639
          0.7327100038528442 -0.4261220097541809 0.5306180119514465 0.719868004322052 -0.34044501185417175 0.604885995388031
          0.6308069825172424 -0.3294120132923126 -0.7025460004806519 0.6632760167121887 -0.3159630000591278 0.6784049868583679
          0.7054349780082703 0.30706700682640076 -0.6388049721717834 0.5953649878501892 0.24037599563598633 -0.7666550278663635
          0.6180970072746277 -0.3860810101032257 -0.6847609877586365 0.6736140251159668 -0.19666600227355957 -0.7124369740486145
          0.7155179977416992 -0.16287800669670105 -0.6793410181999207 0.736810028553009 -0.6139150261878967 -0.2832300066947937
          0.523002028465271 -0.33899399638175964 -0.7820180058479309 0.5863059759140015 -0.36312299966812134 -0.7241460084915161
          -0.7811790108680725 0.6159539818763733 -0.10178499668836594 -0.6948850154876709 0.5939090251922607 -0.4054720103740692
          -0.6038029789924622 0.523626983165741 -0.6010299921035767 -0.8238419890403748 0.30954399704933167 0.47483399510383606
          -0.916251003742218 0.3316270112991333 0.22473900020122528 -0.5063629746437073 0.5599550008773804 0.6557790040969849
          -0.7201859951019287 0.28927698731422424 0.6305959820747375 -0.9461690187454224 0.32359999418258667 0.0068789999932050705
          -0.9264169931411743 0.3092379868030548 -0.21476399898529053 -0.7467219829559326 0.4708609879016876 0.4697830080986023
          -0.7858120203018188 0.42480000853538513 0.4494920074939728 -0.5760849714279175 0.8134999871253967 0.07964400202035904
          -0.6435920000076294 0.5487200021743774 0.5335689783096313 0.46115800738334656 0.8770009875297546 -0.13491900265216827
          0.003117999993264675 0.9193770289421082 -0.3933660089969635 0.946295976638794 0.010015999898314476 -0.3231469988822937
          0.5882520079612732 0.3776000142097473 -0.7151070237159729 0.8700169920921326 -0.044185999780893326 0.4910379946231842
          0.9850509762763977 -0.1324480026960373 0.11014500260353088 -0.6734709739685059 0.5131199955940247 -0.5321140289306641
          -0.6399610042572021 0.35631299018859863 -0.6808019876480103 -0.6328510046005249 0.3871760070323944 -0.6705179810523987
          -0.5167549848556519 0.47051799297332764 -0.7152469754219055 0.18738900125026703 0.6787970066070557 -0.7100139856338501
          0.9830690026283264 0.10967899858951569 -0.14678800106048584 0.8636569976806641 0.45954498648643494 0.20715999603271484
          0.6396600008010864 -0.44211500883102417 0.6287840008735657 0.43689900636672974 0.059668999165296555 0.8975290060043335
          0.7090449929237366 -0.3367060124874115 0.6195840239524841 0.6112819910049438 0.09145800024271011 0.7861109972000122
          0.5599949955940247 -0.35581499338150024 0.7481989860534668 0.7538099884986877 -0.6091840267181396 0.2463040053844452
          0.628305971622467 -0.16809000074863434 0.7595900297164917 0.7552120089530945 -0.34349700808525085 0.5582699775695801
          0.5805839896202087 -0.3073189854621887 0.7539740204811096 0.9912629723548889 -0.12123999744653702 -0.05194700136780739
          0.9336450099945068 -0.19593000411987305 0.29986199736595154 0.6515560150146484 0.1190510019659996 0.7492009997367859
          0.9079239964485168 -0.291377991437912 -0.3012860119342804 0.37796100974082947 -0.10235299915075302 -0.9201459884643555
          0.6991130113601685 0.06495299935340881 -0.7120550274848938 0.6412929892539978 -0.045876000076532364 -0.765923023223877
          0.959194004535675 -0.05952800065279007 -0.2764109969139099 0.4461899995803833 -0.8949339985847473 -0.0027719999197870493
          0.5404040217399597 -0.841401994228363 -0.0023610000498592854 0.35960298776626587 -0.9226700067520142 -0.13916100561618805
          0.5432400107383728 -0.8392289876937866 0.02418000064790249 0.40957099199295044 -0.7999070286750793 -0.4386340081691742
          0.46811598539352417 -0.8661220073699951 0.17521600425243378 0.41725099086761475 -0.6654189825057983 -0.6189659833908081
          0.37932100892066956 -0.8245490193367004 0.41980400681495667 0.33621299266815186 -0.6652759909629822 -0.6666100025177002
          0.3880780041217804 -0.6968240141868591 0.6031849980354309 0.3973020017147064 -0.6045160293579102 0.6904429793357849
          0.21946200728416443 -0.7089580297470093 -0.6702349781990051 0.32277798652648926 -0.6200720071792603 0.7150700092315674
          0.8628389835357666 0.06789500266313553 -0.5008990168571472 0.8186150193214417 -0.03882100060582161 -0.5730289816856384
          0.696802020072937 -0.22643199563026428 -0.6805840134620667 0.6506549715995789 -0.27663299441337585 -0.7071930170059204
          0.7025669813156128 0.03241200000047684 -0.7108790278434753 0.6502289772033691 -0.3497290015220642 -0.6744570136070251
          0.5565320253372192 -0.17268000543117523 -0.8126829862594604 0.49740999937057495 -0.4984549880027771 -0.7100189924240112
          0.8683750033378601 -0.22548800706863403 -0.441677987575531 0.09432800114154816 -0.7806940078735352 -0.6177539825439453
          -0.8414409756660461 0.2869890034198761 -0.45783698558807373 -0.7556179761886597 0.26039499044418335 -0.6010299921035767
          -0.6363149881362915 0.5332229733467102 -0.5574730038642883 -0.9381200075149536 -0.1109829992055893 0.3280450105667114
          -0.9763100147247314 -0.1789110004901886 0.12169700115919113 -0.8590120077133179 -0.04280000180006027 0.5101619958877563
          -0.9694210290908813 -0.2451770007610321 0.01058799959719181 -0.4586940109729767 0.5934749841690063 0.6613519787788391
          -0.6527069807052612 0.3697730004787445 0.6612430214881897 -0.3890970051288605 0.5942450165748596 0.7038999795913696
          -0.7229999899864197 0.04279400035738945 0.6895210146903992 -0.9651240110397339 -0.23870399594306946 -0.10750500112771988
          -0.9353430271148682 -0.17289599776268005 -0.3086090087890625 0.28369200229644775 0.8882120251655579 0.36138400435447693
          -0.3024109899997711 0.24320100247859955 0.921629011631012 0.22422899305820465 0.9365019798278809 0.2696009874343872
          0.04363600164651871 0.7792029976844788 -0.6252509951591492 0.5814430117607117 0.05085400119423866 -0.8119959831237793
          0.7921140193939209 -0.023643000051379204 -0.609915018081665 0.9623749852180481 -0.2029850035905838 -0.1806419938802719
          -0.6226649880409241 0.6163700222969055 -0.4820539951324463 -0.7395870089530945 0.4576739966869354 -0.49350300431251526
          -0.74201899766922 0.4177579879760742 -0.5242959856987 -0.5860329866409302 0.7889159917831421 -0.18486900627613068
          0.013900999911129475 0.945963978767395 0.32397300004959106 0.5220969915390015 0.8526390194892883 -0.02051199972629547
          0.9488319754600525 0.028849000111222267 0.31446000933647156 0.5882520079612732 0.3776000142097473 0.7151070237159729
          0.6214179992675781 -0.43275800347328186 0.65311598777771 0.8192149996757507 0.07342199981212616 0.5687670111656189
          0.7308130264282227 -0.17738699913024902 0.6591249704360962 0.8264409899711609 0.29075899720191956 0.48213499784469604
          0.6162580251693726 -0.47611701488494873 0.627327024936676 0.5359990000724792 -0.29834499955177307 0.7897440195083618
          0.6536890268325806 -0.18516500294208527 0.7337599992752075 0.6965309977531433 0.08889000117778778 0.7120000123977661
          0.8722259998321533 -0.23061199486255646 0.4313240051269531 0.585273027420044 -0.36337101459503174 0.724856972694397
          0.21269899606704712 -0.7011510133743286 0.6805490255355835 0.9020220041275024 -0.29256901144981384 0.31742599606513977
          0.38122498989105225 -0.10331899672746658 0.9186909794807434 0.583607017993927 0.027456000447273254 0.8115720152854919
          0.9476940035820007 -0.027334999293088913 0.3180080056190491 0.9469180107116699 -0.32002198696136475 -0.030517999082803726
          0.6957939863204956 -0.21980099380016327 -0.6837819814682007 0.7204059958457947 -0.17166399955749512 -0.6719719767570496
          0.7498700022697449 -0.23519299924373627 -0.6183680295944214 0.44114598631858826 -0.8944029808044434 -0.07371000200510025
          0.22769400477409363 -0.9737250208854675 -0.003965999931097031 0.3395709991455078 -0.9248899817466736 -0.17108500003814697
          0.22164499759674072 -0.9737780094146729 0.05127999931573868 0.09464900195598602 -0.9647690057754517 -0.24548499286174774
          0.41468700766563416 -0.8809919953346252 0.2277889996767044 0.00015199999324977398 -0.9423270225524902 -0.33469200134277344
          0.28189900517463684 -0.8914139866828918 0.35484299063682556 -0.14378300309181213 -0.9226199984550476 -0.35791000723838806
          0.03140699863433838 -0.9300190210342407 0.36616599559783936 -0.21334700286388397 -0.8760370016098022 -0.4324829876422882
          -0.07483100146055222 -0.901295006275177 0.42669498920440674 -0.19642099738121033 -0.8869240283966064 0.41807299852371216
          -0.27047199010849 -0.8962309956550598 -0.35158801078796387 -0.20290100574493408 -0.8769890069961548 0.43556898832321167
          0.7952389717102051 -0.1743279993534088 -0.5806940197944641 0.7965800166130066 -0.15689800679683685 -0.5838189721107483
          0.6326310038566589 -0.3297879993915558 -0.7007259726524353 0.7290850281715393 -0.172093003988266 -0.6624339818954468
          0.33663201332092285 -0.6203230023384094 -0.708433985710144 0.6899189949035645 0.054621998220682144 -0.72182297706604
          0.5678579807281494 -0.0115769999101758 -0.823045015335083 0.3490769863128662 0.08672899752855301 -0.9330719709396362
          0.6743929982185364 0.12676100432872772 -0.7274100184440613 0.5832930207252502 -0.13610699772834778 -0.800777018070221
          -0.017232999205589294 -0.7923099994659424 -0.6098759770393372 -0.39854100346565247 -0.8951849937438965 -0.19952300190925598
          -0.8715959787368774 -0.1199909970164299 -0.4753130078315735 -0.775983989238739 -0.06130899861454964 -0.6277660131454468
          -0.7031289935112 0.31929001212120056 -0.6353449821472168 -0.4748759865760803 0.5971429944038391 -0.6464620232582092
          -0.4180479943752289 0.5966640114784241 -0.6850020289421082 -0.7995030283927917 -0.5118809938430786 0.31428098678588867
          -0.7937660217285156 -0.5986779928207397 0.10733400285243988 -0.7476819753646851 -0.41946399211883545 0.5148019790649414
          -0.7420629858970642 -0.6685929894447327 0.04822399839758873 -0.7267490029335022 -0.3337869942188263 0.6003509759902954
          -0.775518000125885 -0.628337025642395 -0.06135899946093559 -0.4319159984588623 0.473268985748291 0.7677670121192932
          -0.5623480081558228 0.3845140039920807 0.7320619821548462 -0.30469200015068054 0.5814610123634338 0.7543650269508362
          -0.23072700202465057 0.4799500107765198 0.8464120030403137 -0.5831050276756287 0.0761450007557869 0.8088210225105286
          -0.3138819932937622 0.33207398653030396 0.8894969820976257 -0.7269020080566406 -0.3107460141181946 0.6124129891395569
          -0.7865920066833496 -0.5600259900093079 -0.2600870132446289 -0.7652260065078735 -0.4897089898586273 -0.4178690016269684
          -0.18553400039672852 0.3709709942340851 0.9099220037460327 0.22149799764156342 0.9408119916915894 0.2565400004386902
          0.0993489995598793 0.930325984954834 0.3530200123786926 -0.32075899839401245 -0.009832000359892845 0.9471099972724915
          0.707207977771759 0.6465219855308533 0.28612199425697327 0.04868699982762337 0.7937549948692322 0.6062849760055542
          0.9987919926643372 0.04466800019145012 -0.02045699954032898 -0.2817699909210205 0.22847799956798553 -0.9318820238113403
          0.2957020103931427 0.8618379831314087 -0.41206300258636475 0.2206439971923828 0.9343590140342712 -0.279803991317749
          0.041418999433517456 0.7871540188789368 0.6153640151023865 0.5943940281867981 0.08127299696207047 0.8000569939613342
          0.7849500179290771 -0.024653999134898186 0.6190680265426636 0.6640099883079529 -0.26402899622917175 0.6995570063591003
          0.8188300132751465 -0.09007800370454788 0.566923975944519 0.6783859729766846 0.0025579999200999737 0.7347009778022766
          0.8400639891624451 0.038888998329639435 0.5410910248756409 0.5570269823074341 -0.04131000116467476 0.8294669985771179
          0.6897299885749817 -0.19013699889183044 0.6986569762229919 0.7168660163879395 -0.23488999903202057 0.6564520001411438
          0.37847399711608887 0.0716399997472763 0.9228349924087524 0.6743929982185364 0.12676100432872772 0.7274100184440613
          0.5907920002937317 -0.10784800350666046 0.7995839715003967 0.49654000997543335 -0.4106130003929138 0.7647519707679749
          0.7183840274810791 -0.18234500288963318 0.6713240146636963 0.08573299646377563 -0.7158610224723816 0.6929590106010437
          -0.2877280116081238 -0.8760579824447632 0.38695499300956726 0.9543769955635071 -0.29156801104545593 0.0644339993596077
          0.7462189793586731 -0.207614004611969 0.632498025894165 0.7702080011367798 0.17968100309371948 -0.6119589805603027
          0.1249770000576973 0.10224399715662003 -0.9868770241737366 0.040504999458789825 -0.003425000002607703 -0.9991739988327026
          0.05694499984383583 0.35420000553131104 -0.933434009552002 -0.05425500124692917 -0.998520016670227 0.003765000030398369
          -0.2252109944820404 -0.973330020904541 0.04368799924850464 -0.15800300240516663 -0.986890971660614 0.03288000077009201
          -0.28446701169013977 -0.9586189985275269 0.011265999637544155 -0.3740510046482086 -0.9170529842376709 0.1382019966840744
          -0.12963999807834625 -0.9895129799842834 0.06369999796152115 -0.49581798911094666 -0.8488249778747559 0.18346799910068512
          -0.23322300612926483 -0.9709370136260986 0.053738001734018326 -0.6151959896087646 -0.7700470089912415 0.16899800300598145
          -0.4661230146884918 -0.8803650140762329 -0.08767600357532501 -0.6027460098266602 -0.7967720031738281 0.043028999119997025
          -0.5602179765701294 -0.8134949803352356 -0.15614700317382812 -0.5456290245056152 -0.8282579779624939 0.12758100032806396
          -0.5766980051994324 -0.7943800091743469 -0.19073399901390076 -0.5123850107192993 -0.8562340140342712 -0.06576800346374512
          -0.5974460244178772 -0.7526829838752747 0.27663400769233704 -0.5592809915542603 -0.8246319890022278 -0.08477900177240372