<?xml version="1.0"?>
<VTKFile type="PolyData" version="0.1" byte_order="LittleEndian" header_type="UInt32" compressor="vtkZLibDataCompressor">
  <PolyData>
    <Piece NumberOfPoints="340" NumberOfVerts="0" NumberOfLines="0" NumberOfStrips="0" NumberOfPolys="676">
      <PointData Normals="Normals">
        <DataArray type="Float32" Name="Normals" NumberOfComponents="3" format="ascii" RangeMin="0.9999993510021769" RangeMax="1.000000626517153">
          0.39351698756217957 -0.017412999644875526 0.919152021408081 -0.4928019940853119 0.06088300049304962 0.8680089712142944
          0.7637559771537781 0.10229799896478653 0.6373469829559326 0.8564249873161316 0.015166999772191048 0.5160490274429321
          -0.7418419718742371 0.04256900027394295 0.6692219972610474 0.08418300002813339 -0.010885999538004398 0.9963909983634949
          0.9996910095214844 -0.022850999608635902 0.009800000116229057 0.9706910252571106 -0.06240300089120865 0.23208999633789062
          -0.906324028968811 -0.05513500049710274 -0.4189710021018982 -0.9941660165786743 -0.04404100030660629 0.09845700114965439
          0.6369869709014893 0.3413259983062744 0.6911900043487549 -0.5276089906692505 0.27746298909187317 0.8028960227966309
          -0.9927909970283508 -0.08990400284528732 -0.07926499843597412 0.8589900135993958 0.19654199481010437 0.4727660119533539
          0.9666939973831177 0.1604049950838089 -0.19943000376224518 0.9292380213737488 0.010100999847054482 -0.36934301257133484
          -0.9451190233230591 0.002626999979838729 -0.32671600580215454 -0.6494100093841553 0.046845998615026474 0.7589939832687378
          -0.9984750151634216 0.05443499982357025 0.009163999930024147 -0.24402299523353577 -0.01030299998819828 0.9697149991989136
          -0.037581998854875565 0.031989000737667084 -0.9987810254096985 0.3500930070877075 -0.05017999932169914 -0.9353700280189514
          0.9977549910545349 -0.0651950016617775 -0.015294999815523624 -0.7302370071411133 0.03043299913406372 -0.6825159788131714
          -0.06181599944829941 0.09014499932527542 -0.9940080046653748 0.7380210161209106 0.514352023601532 0.4367699921131134
          0.9418179988861084 0.1834239959716797 0.28166401386260986 0.10229899734258652 0.44521498680114746 0.8895609974861145
          -0.908236026763916 -0.01724099926650524 0.41810300946235657 -0.9945350289344788 -0.1041489988565445 -0.007273999974131584
          -0.8323529958724976 0.1643580049276352 -0.5293149948120117 -0.9361199736595154 -0.259880006313324 -0.23694199323654175
          -0.8921610116958618 -0.43662598729133606 -0.11578500270843506 -0.707256019115448 0.1447409987449646 -0.6919819712638855
          0.9760349988937378 0.11208099871873856 -0.1865289956331253 0.9654099941253662 0.008271999657154083 -0.26060399413108826
          -0.014667999930679798 0.2320300042629242 -0.9725980162620544 0.2143239974975586 0.47101399302482605 -0.8556939959526062
          0.8906340003013611 0.20924800634384155 -0.40371501445770264 0.9353349804878235 0.01963699981570244 0.3532170057296753
          0.9219750165939331 0.20762500166893005 0.32688501477241516 -0.814087986946106 0.04317200183868408 -0.579135000705719
          -0.9855859875679016 0.04680600017309189 -0.1625719964504242 -0.6900519728660583 0.05683999881148338 -0.7215250134468079
          0.09848599880933762 -0.16848300397396088 0.9807720184326172 0.8950740098953247 -0.18352200090885162 0.40640199184417725
          -0.6115530133247375 -0.08436000347137451 0.7866929769515991 -0.9316759705543518 0.001101000001654029 0.3632889986038208
          0.7603729963302612 -0.0501209981739521 -0.6475499868392944 -0.3091149926185608 -0.010088000446557999 -0.9509710073471069
          0.5072789788246155 0.4474770128726959 0.7365000247955322 0.7955620288848877 0.5009250044822693 0.3408159911632538
          0.9398199915885925 0.3395789861679077 0.03773299977183342 0.9504370093345642 0.2314389944076538 0.20761899650096893
          0.9925900101661682 0.12132500112056732 -0.006701999809592962 -0.16794799268245697 0.10275900363922119 0.9804250001907349
          -0.9059100151062012 -0.3245680034160614 0.2719990015029907 -0.6252040266990662 -0.3576500117778778 0.6936910152435303
          -0.8765190243721008 -0.27058398723602295 -0.3981190025806427 -0.8408399820327759 -0.26556000113487244 -0.4716629981994629
          -0.9913439750671387 -0.038339000195264816 0.12556999921798706 -0.8339970111846924 -0.4631749987602234 0.2998639941215515
          -0.7690269947052002 0.3671779930591583 -0.5232369899749756 -0.6172540187835693 -0.6600239872932434 -0.4282130002975464
          -0.6744310259819031 -0.7377189993858337 0.030244000256061554 0.9073569774627686 0.38735300302505493 -0.16328400373458862
          0.8336169719696045 0.14734600484371185 -0.5323259830474854 0.9153209924697876 -0.16930699348449707 -0.3654080033302307
          0.973954975605011 -0.1997939944267273 -0.1072079986333847 0.9881160259246826 0.09084200114011765 -0.12399499863386154
          0.7293739914894104 0.5181509852409363 -0.44669100642204285 0.14188900589942932 0.7449589967727661 -0.6518459916114807
          0.821690022945404 0.29204699397087097 0.489421010017395 0.8130059838294983 0.48938098549842834 0.3154810070991516
          -0.9430639743804932 0.01930299960076809 -0.33205100893974304 0.1491529941558838 -0.20153400301933289 0.9680590033531189
          -0.27050501108169556 -0.2542259991168976 0.9285449981689453 0.6064860224723816 -0.018334999680519104 0.7948830127716064
          0.757768988609314 -0.11063800007104874 -0.6430749893188477 0.9340720176696777 -0.35295599699020386 0.054145000874996185
          0.8760349750518799 -0.20706699788570404 0.4355289936065674 0.9665300250053406 -0.0389380007982254 0.2535800039768219
          -0.6360710263252258 -0.27023398876190186 0.7227640151977539 -0.8493790030479431 -0.11846599727869034 0.514316976070404
          -0.9402490258216858 -0.04634200036525726 0.3373189866542816 -0.9841269850730896 -0.021880000829696655 0.17611299455165863
          -0.16316799819469452 -0.06251999735832214 -0.9846150279045105 -0.835096001625061 -0.04769400134682655 -0.5480319857597351
          0.5706890225410461 0.2579059898853302 0.7796139717102051 0.42096298933029175 0.14038999378681183 0.8961480259895325
          0.7695490121841431 0.6111609935760498 0.18514099717140198 0.6198400259017944 0.7756850123405457 -0.11879099905490875
          0.6169829964637756 0.7843739986419678 0.0639519989490509 -0.07640399783849716 -0.23070700466632843 0.9700189828872681
          -0.850426971912384 -0.52121502161026 0.07148300111293793 -0.9001669883728027 -0.2802779972553253 -0.3333829939365387
          -0.6928439736366272 -0.687063992023468 0.2188829928636551 -0.29798001050949097 -0.6997399926185608 0.6492850184440613
          -0.45767301321029663 -0.5968700051307678 -0.6590009927749634 -0.6325060129165649 -0.22212299704551697 -0.7420229911804199
          -0.733788013458252 0.11653299629688263 -0.6693090200424194 -0.8521659970283508 0.05720100179314613 0.5201359987258911
          -0.8424199819564819 -0.28443899750709534 0.45762699842453003 -0.8145899772644043 0.38378700613975525 -0.4349150061607361
          -0.9941859841346741 -0.019027000293135643 0.10598599910736084 -0.9988150000572205 0.048569001257419586 0.0029380000196397305
          -0.8242449760437012 -0.09634199738502502 0.5579779744148254 -0.7037760019302368 -0.30810099840164185 0.6401360034942627
          -0.49844399094581604 -0.8239089846611023 -0.26968100666999817 -0.9174379706382751 -0.3041900098323822 -0.2564679980278015
          -0.9764339923858643 -0.20255300402641296 -0.0744910016655922 0.6248959898948669 0.6412299871444702 -0.4453420042991638
          0.7454169988632202 0.6614879965782166 -0.08238500356674194 0.7369250059127808 0.18132300674915314 -0.6512020230293274
          0.8994399905204773 0.3613640069961548 -0.24581299722194672 0.9797409772872925 -0.10448800027370453 0.17085200548171997
          0.9422879815101624 0.3223479986190796 0.0904730036854744 0.8722839951515198 0.15851600468158722 0.46259498596191406
          0.7475559711456299 0.5877000093460083 -0.30946698784828186 0.38051000237464905 0.5134980082511902 -0.7691109776496887
          0.9120990037918091 0.014673000201582909 -0.4097070097923279 0.7155680060386658 0.3313469886779785 -0.6149569749832153
          0.787339985370636 0.18162499368190765 -0.5891590118408203 -0.20319199562072754 0.5641120076179504 -0.8003069758415222
          0.2973490059375763 0.3466170132160187 0.8896290063858032 -0.4217680096626282 -0.1014690026640892 0.9010080099105835
          -0.009575000032782555 0.16610200703144073 0.9860619902610779 -0.47780200839042664 -0.3400849997997284 0.8099669814109802
          0.5827190279960632 0.47796401381492615 0.6572589874267578 0.9299460053443909 0.18143099546432495 0.31981799006462097
          0.7484920024871826 0.2832919955253601 0.5995879769325256 0.6248229742050171 -0.2534259855747223 -0.738493025302887
          0.7880380153656006 -0.37787801027297974 -0.4860079884529114 0.8604260087013245 -0.5093169808387756 -0.016259999945759773
          0.7613030076026917 -0.5051770210266113 0.40646401047706604 0.7754780054092407 0.15926900506019592 0.6109570264816284
          0.8059250116348267 -0.03415000066161156 0.5910320281982422 0.8501690030097961 -0.4505549967288971 0.2724199891090393
          0.9782500267028809 0.20686300098896027 -0.015331000089645386 -0.8828139901161194 -0.3020179867744446 0.3597570061683655
          -0.9781230092048645 -0.18143799901008606 -0.10176099836826324 -0.9416540265083313 -0.11151900142431259 -0.3175710141658783
          -0.6352800130844116 -0.15762899816036224 -0.7560240030288696 -0.08000899851322174 -0.2447739988565445 -0.9662730097770691
          0.42681100964546204 0.4172520041465759 0.8023300170898438 0.5156159996986389 -0.30573999881744385 0.8004149794578552
          0.5802299976348877 -0.10668700188398361 0.8074349761009216 0.5308859944343567 -0.16746599972248077 0.830731987953186
          0.5096240043640137 0.7032420039176941 0.49571600556373596 0.5148749947547913 0.8551110029220581 0.060731999576091766
          0.4778600037097931 0.8781920075416565 0.020698999986052513 0.32588499784469604 0.8880959749221802 -0.32416799664497375
          0.41322198510169983 0.8329359889030457 0.3680570125579834 0.3956800103187561 0.8894209861755371 0.22883999347686768
          0.5123649835586548 0.8179000020027161 -0.2617659866809845 -0.009223000146448612 -0.541375994682312 0.8407300114631653
          -0.9194459915161133 -0.26942598819732666 -0.2864069938659668 -0.762099027633667 -0.6259279847145081 -0.16558699309825897
          -0.5064430236816406 -0.8435379862785339 0.1787720024585724 0.2564750015735626 -0.5129690170288086 0.8191959857940674
          0.10776200145483017 -0.8823090195655823 0.45816799998283386 0.10556600242853165 -0.707834005355835 0.6984459757804871
          -0.2145649939775467 -0.9266610145568848 0.30864500999450684 -0.539110004901886 -0.6894940137863159 -0.48369300365448
          -0.7603790163993835 0.26047301292419434 -0.5949599742889404 -0.8394910097122192 0.4060949981212616 -0.3610279858112335
          -0.9241830110549927 0.19210200011730194 -0.3301270008087158 -0.6769390106201172 0.2971799969673157 0.6733779907226562
          -0.8684409856796265 0.33419299125671387 0.3662320077419281 -0.6900650262832642 0.13368700444698334 -0.7112929821014404
          -0.9426019787788391 -0.17570899426937103 -0.28395000100135803 -0.9092980027198792 -0.41576799750328064 0.017705999314785004
          -0.9782050251960754 -0.17125099897384644 0.11742399632930756 -0.9282249808311462 0.37008199095726013 -0.037928998470306396
          -0.7333139777183533 0.6602929830551147 0.1620599925518036 -0.7389450073242188 0.513418972492218 0.4363040030002594
          -0.6264899969100952 0.3382419943809509 0.7022129893302917 0.5856119990348816 0.6110439896583557 -0.5326200127601624
          0.7428629994392395 0.64717698097229 -0.17122000455856323 0.5519629716873169 0.8338680267333984 -0.0010319999419152737
          0.8336799740791321 0.4478139877319336 -0.323172003030777 0.9628270268440247 0.18373599648475647 -0.19800299406051636
          0.7629520297050476 0.5826910138130188 0.2799549996852875 0.6924530267715454 0.6355999708175659 0.34135299921035767
          0.7200739979743958 0.6905859708786011 0.06770899891853333 0.9384530186653137 0.3410640060901642 -0.05460499972105026
          0.8182910084724426 0.38656601309776306 -0.4254010021686554 0.5595769882202148 0.29624098539352417 -0.774025022983551
          0.3867270052433014 0.2883020043373108 -0.8759710192680359 -0.21359699964523315 0.1371690034866333 -0.967244029045105
          0.34817400574684143 -0.1125440001487732 -0.930649995803833 0.8244439959526062 -0.2988409996032715 -0.4806100130081177
          0.7140439748764038 -0.01669899933040142 -0.6999009847640991 0.8855710029602051 -0.22046899795532227 -0.40884900093078613
          -0.23858299851417542 0.6051409840583801 0.7595279812812805 -0.016318000853061676 0.6835929751396179 0.7296810150146484
          -0.3180930018424988 0.28595200181007385 0.9039070010185242 -0.5918639898300171 0.43606600165367126 0.6778960227966309
          -0.8238840103149414 0.1167289987206459 0.5546079874038696 -0.8292880058288574 -0.2929860055446625 0.47585800290107727
          0.09021899849176407 0.7802910208702087 0.6188750267028809 0.6383190155029297 0.6810309886932373 0.35881200432777405
          0.23201000690460205 0.9088709950447083 0.3465909957885742 0.8535199761390686 0.49985501170158386 0.14713500440120697
          0.36850300431251526 -0.4517039954662323 -0.8125079870223999 0.5548229813575745 -0.6771699786186218 -0.4833349883556366
          0.7128520011901855 -0.3940039873123169 -0.58017498254776 0.7396929860115051 0.0892689973115921 -0.6669970154762268
          0.9855849742889404 -0.10020899772644043 -0.13631199300289154 0.8692479729652405 0.23548099398612976 -0.43469101190567017
          0.8656539916992188 0.4541639983654022 0.21066300570964813 0.7650349736213684 0.46404099464416504 0.44652798771858215
          0.7383880019187927 0.2919979989528656 0.607882022857666 0.9597659707069397 0.27897799015045166 0.03195900097489357
          -0.8636109828948975 -0.48160600662231445 0.14910300076007843 -0.9714459776878357 -0.21636900305747986 0.09735199809074402
          -0.8410540223121643 -0.5246750116348267 -0.13169899582862854 -0.6673189997673035 -0.47210800647735596 -0.5760200023651123
          -0.6725710034370422 -0.28932198882102966 -0.6811320185661316 0.0783270001411438 -0.4341470003128052 -0.8974300026893616
          -0.2763049900531769 -0.5274860262870789 -0.8033769726753235 0.4915130138397217 0.8208410143852234 0.29092100262641907
          0.7137529850006104 0.4672670066356659 0.5217450261116028 0.8132320046424866 -0.06015799939632416 0.5788220167160034
          0.8893939852714539 -0.4060850143432617 0.20993800461292267 0.6782569885253906 -0.6889920234680176 0.2554570138454437
          0.39991599321365356 -0.597769021987915 0.6947950124740601 0.7916610240936279 0.6108739972114563 -0.010277999565005302
          0.6193739771842957 0.7058069705963135 -0.3438200056552887 -0.9918469786643982 -0.1274310052394867 0.0001740000006975606
          -0.7063620090484619 -0.6950500011444092 0.13400700688362122 -0.7920179963111877 -0.5927259922027588 -0.14622999727725983
          -0.331481009721756 -0.9426950216293335 0.038036998361349106 0.38738998770713806 -0.8119649887084961 0.43662598729133606
          0.504190981388092 -0.8631370067596436 0.028031999245285988 0.14331799745559692 -0.9888269901275635 0.040995001792907715
          -0.5573049783706665 0.6230649948120117 0.5488179922103882 -0.9245169758796692 -0.22473099827766418 0.30783799290657043
          -0.4576509892940521 -0.19004200398921967 -0.8685849905014038 -0.663519024848938 -0.6558650135993958 -0.35997799038887024
          -0.6278619766235352 -0.7782750129699707 0.008814999833703041 -0.8373730182647705 -0.516772985458374 -0.1781879961490631
          -0.9730349779129028 -0.22758999466896057 -0.03750700131058693 0.951537013053894 0.2963689863681793 -0.08211199939250946
          0.8963099718093872 -0.26259300112724304 -0.35731300711631775 0.8730199933052063 0.30882900953292847 -0.3774389922618866
          0.8877480030059814 -0.4574260115623474 0.05161599814891815 0.9962120056152344 -0.043894000351428986 -0.0750650018453598
          0.9774209856987 -0.20476800203323364 -0.05212799832224846 0.8621169924736023 0.029868999496102333 -0.5058280229568481
          0.33401599526405334 -0.013074999675154686 -0.9424769878387451 0.5400360226631165 -0.17630599439144135 -0.8229680061340332
          -0.02410699985921383 -0.16951300203800201 -0.9852330088615417 0.3431900143623352 -0.6109740138053894 -0.7133949995040894
          -0.05889600142836571 -0.37070098519325256 -0.9268829822540283 0.6085429787635803 -0.7064530253410339 -0.3613860011100769
          0.6953409910202026 -0.6598359942436218 -0.2848129868507385 -0.43295401334762573 0.6054289937019348 0.6678370237350464
          -0.39159300923347473 0.7593050003051758 0.5197219848632812 -0.7513030171394348 0.5582399964332581 0.3520109951496124
          -0.5089979767799377 0.8011559844017029 0.31475499272346497 -0.8891410231590271 0.36059001088142395 0.2817870080471039
          -0.9331579804420471 -0.044130999594926834 0.3567480146884918 -0.8786939978599548 -0.3066349923610687 0.3658849895000458
          0.6104339957237244 0.7877470254898071 0.0826139971613884 0.2401989996433258 0.9231230020523071 0.300246000289917
          -0.17592699825763702 0.828033983707428 0.5323619842529297 0.3990130126476288 0.9115740060806274 0.0991009995341301
          0.13814599812030792 -0.7529469728469849 -0.64341801404953 0.3821850121021271 -0.816411018371582 -0.43290600180625916
          0.6123300194740295 -0.6219969987869263 -0.48802798986434937 0.6102700233459473 -0.19406799972057343 -0.7680540084838867
          0.720104992389679 0.48778200149536133 -0.4934749901294708 0.39790698885917664 0.09072600305080414 -0.9129289984703064
          0.40793201327323914 0.42636799812316895 -0.807341992855072 0.7209129929542542 0.6831240057945251 -0.1167289987206459
          0.5967010259628296 0.7607179880142212 0.2554529905319214 0.6863510012626648 0.6940060257911682 0.21743500232696533
          0.8096039891242981 0.4810299873352051 0.3363789916038513 -0.9112290143966675 -0.3947550058364868 0.11760099977254868
          -0.6167590022087097 -0.5630429983139038 -0.5500829815864563 -0.5415760278701782 -0.6701819896697998 -0.5074959993362427
          -0.836601972579956 -0.4495919942855835 -0.31299200654029846 -0.15102100372314453 -0.7616890072822571 -0.630096971988678
          0.9683930277824402 0.2282329946756363 0.10062000155448914 0.9820119738578796 -0.15126000344753265 0.11302100121974945
          0.8253390192985535 -0.5390580296516418 -0.16802500188350677 -0.4123319983482361 -0.78404301404953 0.4639599919319153
          -0.039576999843120575 -0.9774479866027832 0.2074349969625473 0.40958699584007263 -0.907194972038269 -0.09610400348901749
          -0.8073779940605164 -0.46431198716163635 0.364082008600235 -0.28551000356674194 -0.9583690166473389 -0.0035290000960230827
          -0.13884800672531128 -0.8627480268478394 -0.48619699478149414 -0.26012301445007324 -0.9651579856872559 0.028395000845193863
          -0.5677390098571777 -0.7747660279273987 -0.27822598814964294 -0.6442390084266663 -0.4691709876060486 -0.6040149927139282
          -0.8852959871292114 -0.36318400502204895 -0.2904289960861206 0.9622979760169983 -0.03550500050187111 -0.2696700096130371
          0.4412600100040436 -0.8496559858322144 0.2887449860572815 0.7675920128822327 -0.6402940154075623 0.02874399907886982
          0.6590399742126465 -0.25360798835754395 -0.7080600261688232 0.6086859703063965 -0.5407969951629639 -0.5805519819259644
          0.0852620005607605 -0.3127340078353882 -0.9460060000419617 0.027250999584794044 -0.3225800096988678 -0.946150004863739
          0.12612900137901306 -0.8482319712638855 -0.5143880248069763 0.13416799902915955 -0.9809319972991943 -0.14060799777507782
          0.10307999700307846 -0.9938989877700806 -0.03922399878501892 -0.7943199872970581 0.5696049928665161 -0.2112019956111908
          -0.18698200583457947 0.8775010108947754 0.4416230022907257 -0.20807600021362305 0.9759780168533325 0.064580999314785
          -0.37787100672721863 0.8281260132789612 -0.414029985666275 -0.9638389945030212 0.25427600741386414 0.07973899692296982
          -0.999763011932373 -0.020294999703764915 -0.007911000400781631 0.19245600700378418 0.9162420034408569 0.35137099027633667
          -0.17152200639247894 -0.7616519927978516 -0.6248729825019836 0.02525700069963932 -0.7797279953956604 -0.6256080269813538
          0.3110800087451935 -0.6512839794158936 -0.6921399831771851 0.2680099904537201 -0.24616600573062897 -0.9314360022544861
          0.22190800309181213 0.7759150266647339 -0.5905190110206604 -0.12158799916505814 0.18491899967193604 -0.9752029776573181
          0.09564200043678284 0.5194219946861267 -0.8491489887237549 0.1703449934720993 0.9781450033187866 -0.11922500282526016
          -0.9129400253295898 0.07649199664592743 -0.4008600115776062 -0.3857629895210266 -0.4102329909801483 -0.8263750076293945
          -0.701545000076294 0.01371300034224987 -0.7124930024147034 -0.4846380054950714 -0.10647200047969818 -0.8682109713554382
          -0.34203699231147766 -0.8602169752120972 0.37820398807525635 0.00043700000969693065 -0.9088919758796692 0.4170309901237488
          -0.7253710031509399 -0.6850280165672302 0.06762100011110306 -0.43130800127983093 -0.7599939703941345 -0.486191987991333
          -0.5242459774017334 -0.7763800024986267 -0.34985700249671936 -0.22656400501728058 -0.6434910297393799 -0.7311549782752991
          -0.3286159932613373 -0.5210480093955994 -0.7877309918403625 0.45393499732017517 -0.8849959969520569 0.1035659983754158
          0.038398999720811844 -0.988323986530304 0.1474519968032837 0.2946690022945404 -0.828004002571106 -0.4770529866218567
          -0.9391019940376282 0.2640250027179718 -0.21995100378990173 -0.6120240092277527 0.3964569866657257 -0.6842870116233826
          -0.20352600514888763 0.5729420185089111 -0.7939239740371704 -0.0872730016708374 -0.2895840108394623 -0.9531660079956055
          <InformationKey name="L2_NORM_RANGE" location="vtkDataArray" length="2">
            <Value index="0">
              0.999999351
            </Value>
            <Value index="1">
              1.0000006265
            </Value>
          </InformationKey>
        </DataArray>
      </PointData>
      <CellData>
      </CellData>
      <Points>
        <DataArray type="Float32" Name="Points" NumberOfComponents="3" format="ascii" RangeMin="0.012093455278309904" RangeMax="0.300261693531112">
          0.0017989999614655972 -0.18509000539779663 0.007098999805748463 -0.0033499998971819878 -0.22861100733280182 0.009503000415861607
          0.010027999989688396 -0.2374110072851181 0.0023640000727027655 0.009248999878764153 -0.2153480052947998 0.002382999984547496
          -0.005688999779522419 -0.17959199845790863 0.0058200000785291195 0.006976000033318996 -0.14707200229167938 0.007765000220388174
          0.011714000254869461 -0.1769769936800003 -0.0005779999773949385 0.013845999725162983 -0.1436299979686737 0.003777999896556139
          -0.00381199992261827 -0.22787299752235413 -0.00749199977144599 -0.006928000133484602 -0.20598700642585754 0.004341000225394964
          0.006233000196516514 -0.24893100559711456 0.010033000260591507 -0.0008159999852068722 -0.24948200583457947 0.014295999892055988
          -0.0024939998984336853 -0.24515199661254883 -0.003751999931409955 0.009731999598443508 -0.24709300696849823 0.005444000009447336
          0.011497000232338905 -0.24506600201129913 -0.0017269999952986836 0.010274999774992466 -0.21590399742126465 -0.001104000024497509
          -0.005907000042498112 -0.2047490030527115 -0.004532000049948692 -0.003848999971523881 -0.1558620035648346 0.005200999788939953
          -0.006372000090777874 -0.1560879945755005 -0.0008459999808110297 0.0029819998890161514 -0.08728499710559845 0.008852999657392502
          -0.002587999915704131 -0.17495599389076233 -0.007706000003963709 0.004616999998688698 -0.12393499910831451 -0.007459000218659639
          0.015870999544858932 -0.0990070030093193 0.001285000005736947 -0.0024019998963922262 -0.23657600581645966 -0.008759000338613987
          0.0001990000018849969 -0.23680900037288666 -0.010267999954521656 0.009724999777972698 -0.2659299969673157 0.01782199926674366
          0.011549999937415123 -0.2660770118236542 0.013020999729633331 0.0023849999997764826 -0.2625190019607544 0.020880000665783882
          -0.00026699999580159783 -0.2633259892463684 0.01913299970328808 0.00013699999544769526 -0.2617279887199402 -0.013962999917566776
          0.00028899998869746923 -0.2609519958496094 -0.015838999301195145 -0.0010010000551119447 -0.26623401045799255 0.005903999786823988
          0.0013559999642893672 -0.2651360034942627 -0.0018240000354126096 -0.00029200001154094934 -0.25310200452804565 -0.012872000224888325
          0.015402000397443771 -0.2725229859352112 0.0005230000242590904 0.01372000016272068 -0.26694101095199585 -0.00443200021982193
          0.0005929999751970172 -0.24504299461841583 -0.011533999815583229 0.0031139999628067017 -0.26239100098609924 -0.01733499951660633
          0.011831000447273254 -0.26081201434135437 -0.008921000175178051 0.014078999869525433 -0.26949501037597656 0.004236999899148941
          0.01498199999332428 -0.27281901240348816 0.0028150000143796206 -0.004666000138968229 -0.15593400597572327 -0.004891999997198582
          -0.0024709999561309814 -0.09808100014925003 -0.0004330000083427876 -0.002713999943807721 -0.12748600542545319 -0.004166000057011843
          0.009014000184834003 -0.036122001707553864 0.010723999701440334 0.017710000276565552 -0.03192700073122978 0.006054999772459269
          0.00380500010214746 -0.03634899854660034 0.009731999598443508 -0.0014199999859556556 -0.07284600287675858 0.0030010000336915255
          0.01335499994456768 -0.08249100297689438 -0.003955999854952097 0.004767999984323978 -0.09747199714183807 -0.008317999541759491
          0.010664000175893307 -0.2710599899291992 0.02307100035250187 0.012476000003516674 -0.2718220055103302 0.02164500020444393
          0.01183599978685379 -0.26951199769973755 0.017285000532865524 0.012171000242233276 -0.2735219895839691 0.008143000304698944
          0.011815999634563923 -0.2722190022468567 0.01195599976927042 0.006713000126183033 -0.27114999294281006 0.023984000086784363
          0.001164000015705824 -0.2801609933376312 0.015096000395715237 0.005133000202476978 -0.2782920002937317 0.02250399999320507
          -0.0009590000263415277 -0.2713159918785095 0.008967000059783459 -0.0007849999819882214 -0.2760240137577057 0.01046799961477518
          0.0008510000188834965 -0.27407100796699524 -0.019294999539852142 0.0016339999856427312 -0.2690959870815277 -0.011017999611794949
          0.0006689999718219042 -0.2659339904785156 -0.01860000006854534 0.0031220000237226486 -0.269665002822876 0.003083999967202544
          0.006403000093996525 -0.2708609998226166 -0.0006629999843426049 0.016005000099539757 -0.27537500858306885 0.0007220000261440873
          0.014605999924242496 -0.2737100124359131 -0.0016400000313296914 0.01307000033557415 -0.27134498953819275 -0.004356999881565571
          0.012745999731123447 -0.27051299810409546 -0.008464000187814236 0.01297600008547306 -0.27031099796295166 -0.012485000304877758
          0.011946000158786774 -0.27374500036239624 -0.018101999536156654 0.003102000104263425 -0.2706319987773895 -0.023725999519228935
          0.013531000353395939 -0.27393999695777893 0.004834999796003103 0.016200000420212746 -0.2759059965610504 0.003073000116273761
          -0.0014049999881535769 -0.07658299803733826 -0.0009250000002793968 0.011978000402450562 -0.007400999777019024 0.018061000853776932
          0.0040790000930428505 -0.020976999774575233 0.01295700017362833 0.016363000497221947 -0.002449000021442771 0.017091000452637672
          0.011787000112235546 -0.059390999376773834 -0.008310999721288681 0.020076999440789223 -0.022982999682426453 -0.0033360000234097242
          0.022244999185204506 -0.008154000155627728 0.0028550000861287117 0.023145999759435654 -0.0029120000544935465 0.010358000174164772
          0.0006300000241026282 -0.021321000531315804 0.011258999817073345 -0.0015150000108405948 -0.03609500080347061 0.0032770000398159027
          -0.0016720000421628356 -0.04411900043487549 0.0030789999291300774 -0.0014819999923929572 -0.0500670000910759 0.003089000005275011
          0.008023999631404877 -0.0451820008456707 -0.00939400028437376 -0.00037299998803064227 -0.05431799963116646 -0.0023870000150054693
          0.015305000357329845 -0.2770079970359802 0.02159699983894825 0.01295199990272522 -0.2763499915599823 0.023531999439001083
          0.014031999744474888 -0.27397701144218445 0.02026199921965599 0.012388999573886395 -0.2747350037097931 0.013167999684810638
          0.01690799929201603 -0.27842798829078674 0.005071999970823526 0.010552000254392624 -0.2799740135669708 0.02428399957716465
          0.003837000112980604 -0.2877109944820404 0.011597000062465668 0.001474000047892332 -0.2811479866504669 0.010626000352203846
          0.005303999874740839 -0.289341002702713 0.011676999740302563 0.010664000175893307 -0.28693899512290955 0.02026600018143654
          0.002202000003308058 -0.2721239924430847 0.006591999903321266 0.006932999938726425 -0.2740580141544342 0.0056409998796880245
          0.003467000089585781 -0.2769779860973358 0.007734000217169523 0.0019229999743402004 -0.2773570120334625 -0.014587000012397766