<?xml version="1.0"?>
<VTKFile type="PolyData" version="0.1" byte_order="LittleEndian" header_type="UInt32" compressor="vtkZLibDataCompressor">
  <PolyData>
    <Piece NumberOfPoints="134" NumberOfVerts="0" NumberOfLines="0" NumberOfStrips="0" NumberOfPolys="264">
      <PointData Normals="Normals">
        <DataArray type="Float32" Name="Normals" NumberOfComponents="3" format="ascii" RangeMin="0.9999992165409854" RangeMax="1.0000005685344302">
          -0.6190850138664246 -0.7853090167045593 0.0048489999026060104 -0.37235501408576965 -0.7398480176925659 0.5603370070457458
          -0.5533549785614014 -0.5468220114707947 0.6283190250396729 -0.005621999967843294 -0.8964139819145203 0.4431830048561096
          0.06744199991226196 -0.9943689703941345 -0.08173900097608566 -0.7441520094871521 -0.6303150057792664 0.2212280035018921
          -0.7301530241966248 -0.6695209741592407 -0.13644999265670776 -0.6431660056114197 -0.6166269779205322 -0.45399099588394165
          -0.39585500955581665 -0.9042400121688843 -0.16015399992465973 0.10787300020456314 -0.30719301104545593 0.9455140233039856
          -0.39940398931503296 -0.22379200160503387 0.889041006565094 -0.28556200861930847 0.05254799872636795 0.9569190144538879
          0.4513919949531555 -0.6397200226783752 0.6220970153808594 0.7368419766426086 -0.675773024559021 0.019852999597787857
          0.22782599925994873 -0.9733049869537354 -0.027813000604510307 0.8392699956893921 -0.5401149988174438 -0.062470998615026474
          -0.667523980140686 -0.6642869710922241 -0.3363550007343292 -0.5757039785385132 -0.6886669993400574 0.44079700112342834
          -0.7254670262336731 -0.5032349824905396 -0.46952399611473083 -0.15934599936008453 -0.822147011756897 -0.5465199947357178
          -0.7003939747810364 -0.24880099296569824 -0.6689890027046204 -0.4024930000305176 -0.1290220022201538 -0.9062849879264832
          -0.21310299634933472 -0.21248100697994232 -0.9536449909210205 0.16389599442481995 -0.9742599725723267 -0.15477700531482697
          0.6475780010223389 -0.3073660135269165 0.6972569823265076 0.21798500418663025 0.03671500086784363 0.9752609729766846
          -0.030410999432206154 0.09393999725580215 0.9951130151748657 0.46174299716949463 0.5677459836006165 0.6815119981765747
          0.8342990279197693 0.3297869861125946 0.44179800152778625 0.04234199970960617 0.6459050178527832 0.7622420191764832
          0.5252389907836914 0.3227899968624115 0.787356972694397 -0.20855699479579926 -0.41067200899124146 0.8876109719276428
          0.06219499930739403 0.8872449994087219 0.4570870101451874 0.9569299817085266 -0.14482100307941437 0.25161901116371155
          0.9864400029182434 -0.02491299994289875 -0.16222000122070312 0.7040640115737915 -0.7101110219955444 -0.006051999982446432
          0.9329059720039368 0.35929301381111145 -0.02437799982726574 0.9956089854240417 -0.0922819972038269 -0.01569800078868866
          -0.3317579925060272 -0.20697900652885437 -0.9203780293464661 -0.540369987487793 -0.2646329998970032 -0.7987300157546997
          -0.6381469964981079 -0.7688770294189453 -0.03996099904179573 -0.6150779724121094 -0.6532229781150818 -0.44156399369239807
          -0.2784300148487091 -0.2739369869232178 -0.9205620288848877 -0.35542699694633484 -0.4197019934654236 -0.835178017616272
          -0.4384779930114746 -0.7782520055770874 0.4495120048522949 -0.22607600688934326 -0.5638049840927124 0.7943639755249023
          -0.13396599888801575 -0.5626260042190552 0.8157849907875061 -0.49258899688720703 0.17939500510692596 -0.8515710234642029
          0.5701190233230591 -0.5651530027389526 -0.5962939858436584 -0.29217299818992615 -0.021755000576376915 -0.9561179876327515
          -0.21135899424552917 -0.047352999448776245 -0.9762610197067261 0.20370599627494812 -0.011526999995112419 -0.9789639711380005
          0.5858989953994751 0.8099370002746582 -0.026910999789834023 0.8864169716835022 0.4594520032405853 -0.056292999535799026
          0.45248401165008545 0.8714330196380615 0.18937399983406067 0.7120370268821716 0.7021340131759644 -0.0033489998895674944
          0.7192140221595764 0.41060298681259155 0.5604789853096008 0.229436993598938 -0.18419599533081055 0.955735981464386
          0.5528380274772644 0.8294090032577515 0.0803230032324791 0.8111259937286377 0.5839750170707703 0.032370999455451965
          0.8400110006332397 -0.10885600000619888 -0.5315369963645935 0.8268219828605652 0.27337801456451416 -0.4915589988231659
          -0.11488699913024902 0.364095002412796 -0.924248993396759 0.34408798813819885 0.4928700029850006 -0.7991759777069092
          -0.67119300365448 -0.6310189962387085 -0.38899099826812744 -0.6692969799041748 -0.6713430285453796 0.3183409869670868
          -0.7212640047073364 -0.6917150020599365 -0.036166001111269 0.6074849963188171 0.5216159820556641 -0.5990650057792664
          -0.6745820045471191 -0.38253799080848694 -0.6313499808311462 -0.28129300475120544 -0.218858003616333 -0.9343309998512268
          0.05962900072336197 -0.10613500326871872 -0.9925619959831238 0.3912070095539093 0.23431900143623352 -0.889972984790802
          -0.2157839983701706 -0.8124210238456726 0.5416719913482666 0.3805069923400879 -0.4000990092754364 0.8337479829788208
          0.490772008895874 -0.027421999722719193 0.8708570003509521 0.14787200093269348 0.79584801197052 -0.587162971496582
          0.005903000012040138 0.8329219818115234 -0.5533589720726013 -0.036678001284599304 0.4244590103626251 -0.9047039747238159
          0.18423999845981598 0.2424509972333908 -0.9525089859962463 0.48134100437164307 0.8619459867477417 -0.15925000607967377
          0.38436099886894226 0.9231680035591125 -0.005169000010937452 0.8080639839172363 0.4467810094356537 0.38395199179649353
          0.6066380143165588 0.6179680228233337 -0.5001050233840942 0.40499401092529297 0.8439750075340271 -0.35169100761413574
          -0.9680569767951965 0.03749899938702583 -0.24790899455547333 -0.8669829964637756 0.41015198826789856 0.28304800391197205
          -0.37494200468063354 -0.6476349830627441 0.663316011428833 -0.7494419813156128 0.6392409801483154 0.17235800623893738
          -0.7187029719352722 -0.27017998695373535 0.6406790018081665 0.9238439798355103 0.2724109888076782 0.2688960134983063
          0.874472975730896 0.4360800087451935 -0.21243999898433685 -0.6742219924926758 0.31803199648857117 -0.6665440201759338
          -0.7725200057029724 0.6005390286445618 -0.20631399750709534 0.055240001529455185 0.18177099525928497 -0.9817879796028137
          0.5732319951057434 0.2798730134963989 -0.7701150178909302 0.10640999674797058 -0.577318012714386 0.8095560073852539
          0.3778049945831299 -0.15105299651622772 0.9134799838066101 0.7090979814529419 0.16818000376224518 0.6847599744796753
          -0.34329500794410706 0.9169650077819824 0.2032800018787384 -0.2530969977378845 0.9633600115776062 0.08877000212669373
          -0.17895199358463287 -0.36239299178123474 0.914683997631073 -0.7420409917831421 0.16062100231647491 0.6508269906044006
          -0.7795770168304443 0.6262699961662292 0.0068270000629127026 -0.6546419858932495 0.6675580143928528 0.3546980023384094
          -0.844012975692749 0.5104089975357056 0.16469399631023407 -0.6615260243415833 0.7482380270957947 0.05023600161075592
          -0.9054120182991028 0.41350001096725464 0.09615600109100342 -0.7268120050430298 0.5959839820861816 0.34139201045036316
          -0.43280699849128723 0.901449978351593 -0.008074999786913395 0.7644720077514648 0.6141420006752014 0.19598999619483948
          0.7109280228614807 0.5847619771957397 -0.39068499207496643 -0.43061599135398865 0.6508340239524841 -0.6252880096435547
          -0.7591620087623596 0.5894629955291748 0.27605700492858887 0.29781100153923035 0.43755799531936646 -0.8484410047531128
          0.09272599965333939 -0.15832699835300446 0.9830229878425598 0.0761210024356842 0.34878599643707275 0.9341059923171997
          0.46213498711586 0.5747510194778442 0.6753460168838501 -0.4544430077075958 0.8858489990234375 0.0935640037059784
          -0.6997349858283997 0.6929410099983215 0.1737940013408661 -0.4396730065345764 0.23762699961662292 0.8661530017852783
          -0.5032089948654175 0.8232539892196655 0.2627429962158203 -0.04102800041437149 0.9088649749755859 0.41506901383399963
          -0.35350900888442993 0.7937859892845154 0.49490898847579956 -0.9426609873771667 0.1360500007867813 0.304764986038208
          -0.7615410089492798 0.6386820077896118 0.11018700152635574 -0.9758480191230774 0.15898500382900238 0.14981700479984283
          -0.8466650247573853 0.530351996421814 0.04341299831867218 -0.7509999871253967 0.6544389724731445 0.0877939984202385
          -0.610526978969574 0.771793007850647 0.17774400115013123 0.18100300431251526 0.7047510147094727 -0.6859769821166992
          -0.3425480127334595 0.9245240092277527 -0.16707900166511536 -0.5423780083656311 0.8250709772109985 -0.15837499499320984
          -0.9343850016593933 0.32816699147224426 0.13867799937725067 -0.9191150069236755 0.36106500029563904 0.1576710045337677
          <InformationKey name="L2_NORM_RANGE" location="vtkDataArray" length="2">
            <Value index="0">
              0.99999921654
            </Value>
            <Value index="1">
              1.0000005685
            </Value>
          </InformationKey>
        </DataArray>
      </PointData>
      <CellData>
      </CellData>
      <Points>
        <DataArray type="Float32" Name="Points" NumberOfComponents="3" format="ascii" RangeMin="0.14281336359290003" RangeMax="0.16679692923629807">
          0.03930800035595894 -0.1601880043745041 0.01653200015425682 0.039684001356363297 -0.16033199429512024 0.01776999980211258
          0.037679001688957214 -0.1580680012702942 0.018509000539779663 0.04108000174164772 -0.16066999733448029 0.017854999750852585
          0.04064000025391579 -0.16088099777698517 0.016551999375224113 0.03676899895071983 -0.1569720059633255 0.017892999574542046
          0.03720699995756149 -0.15757399797439575 0.014793000183999538 0.039788998663425446 -0.15961800515651703 0.011345000006258488
          0.03996500000357628 -0.1601559966802597 0.013400999829173088 0.04243500158190727 -0.15743400156497955 0.019592000171542168
          0.036986999213695526 -0.15563400089740753 0.019238000735640526 0.038346998393535614 -0.15556000173091888 0.01981700025498867
          0.04243199899792671 -0.1599150002002716 0.018293999135494232 0.04290800169110298 -0.1598760038614273 0.017364000901579857
          0.0406000018119812 -0.16040000319480896 0.014138000085949898 0.042649999260902405 -0.15912599861621857 0.014523999765515327
          0.032628998160362244 -0.15336400270462036 0.0149959996342659 0.03475100174546242 -0.15511499345302582 0.01761999912559986
          0.03667299821972847 -0.1561959981918335 0.013119000010192394 0.041039999574422836 -0.1600620001554489 0.011006000451743603
          0.03764199838042259 -0.1568010002374649 0.011760000139474869 0.03860900178551674 -0.15656700730323792 0.011095999740064144
          0.04058000072836876 -0.15921300649642944 0.010611999779939651 0.041131000965833664 -0.16039499640464783 0.012107999995350838
          0.042819999158382416 -0.15881100296974182 0.018926000222563744 0.041335999965667725 -0.15632599592208862 0.01996699906885624
          0.039746999740600586 -0.1556520015001297 0.020090999081730843 0.04146600142121315 -0.15529799461364746 0.019619999453425407
          0.04298799857497215 -0.15671099722385406 0.01896500028669834 0.0378590002655983 -0.1546030044555664 0.018921000882983208
          0.03670800104737282 -0.1534699946641922 0.01929900050163269 0.03561900183558464 -0.15436699986457825 0.01918400079011917
          0.03916899859905243 -0.15444399416446686 0.019321000203490257 0.043441999703645706 -0.1581210047006607 0.018268000334501266
          0.04340999945998192 -0.1579110026359558 0.016459999606013298 0.04261799901723862 -0.15956999361515045 0.01267900038510561
          0.042812999337911606 -0.15713000297546387 0.01487400010228157 0.043400999158620834 -0.15773199498653412 0.012760999612510204
          0.033362001180648804 -0.15231099724769592 0.013106999918818474 0.03660999983549118 -0.15518799424171448 0.012330000288784504
          0.028562000021338463 -0.14936499297618866 0.015494000166654587 0.02779800072312355 -0.14837199449539185 0.0147299999371171
          0.031567998230457306 -0.1501930058002472 0.012814999558031559 0.02686299942433834 -0.14600299298763275 0.013318000361323357
          0.028725000098347664 -0.14863499999046326 0.020907999947667122 0.032962001860141754 -0.15165500342845917 0.020145000889897346
          0.031092999503016472 -0.1494089961051941 0.02137799933552742 0.03768699988722801 -0.1553570032119751 0.0115769999101758
          0.042305998504161835 -0.15926100313663483 0.010722000151872635 0.03860500082373619 -0.15594300627708435 0.010995999909937382
          0.0403750017285347 -0.15711399912834167 0.011003999970853329 0.042417000979185104 -0.15749700367450714 0.010231999680399895
          0.04170899838209152 -0.15520000457763672 0.01746400073170662 0.04314199835062027 -0.1565520018339157 0.017111999914050102
          0.03810799866914749 -0.1540829986333847 0.017504999414086342 0.03425300121307373 -0.15010300278663635 0.01728999987244606
          0.03520200029015541 -0.15168499946594238 0.01961500011384487 0.034890998154878616 -0.15218600630760193 0.019927000626921654
          0.04133100062608719 -0.1552090048789978 0.015312000177800655 0.04286700114607811 -0.1560090035200119 0.013044999912381172
          0.04300199821591377 -0.15777599811553955 0.010688000358641148 0.04288800060749054 -0.1569100022315979 0.010758000425994396
          0.036910999566316605 -0.15438899397850037 0.012407000176608562 0.036118000745773315 -0.15291200578212738 0.01291900034993887
          0.02319199964404106 -0.14534500241279602 0.01617800071835518 0.023729000240564346 -0.14517299830913544 0.022050999104976654
          0.023068999871611595 -0.14548499882221222 0.017193999141454697 0.03236600011587143 -0.14900599420070648 0.012949000112712383
          0.023757999762892723 -0.14396800100803375 0.013873999938368797 0.02519400045275688 -0.14358699321746826 0.012764000333845615
          0.027854999527335167 -0.1451359987258911 0.012906000018119812 0.029729999601840973 -0.14586800336837769 0.013123000040650368
          0.026859000325202942 -0.14694499969482422 0.022644000127911568 0.0293940007686615 -0.1463800072669983 0.023327000439167023
          0.03206900134682655 -0.14892999827861786 0.02139499969780445 0.0372139997780323 -0.15379400551319122 0.012773999944329262
          0.03975899890065193 -0.15439000725746155 0.011459000408649445 0.04067299887537956 -0.15533800423145294 0.010595999658107758
          0.04191099852323532 -0.15620699524879456 0.010312999598681927 0.037863001227378845 -0.1537030041217804 0.013907999731600285
          0.04093800112605095 -0.1545889973640442 0.013224000111222267 0.03258400037884712 -0.14816200733184814 0.02063100039958954
          0.04257600009441376 -0.1560630053281784 0.010859999805688858 0.04078200086951256 -0.15471400320529938 0.011260000057518482
          0.021865999326109886 -0.14345699548721313 0.016808999702334404 0.02187200076878071 -0.14391399919986725 0.019432000815868378
          0.026037000119686127 -0.14565500617027283 0.024229999631643295 0.023646999150514603 -0.1439639925956726 0.022700000554323196
          0.024325000122189522 -0.14392000436782837 0.02406799979507923 0.030616000294685364 -0.14496299624443054 0.022276999428868294
          0.02988399937748909 -0.14408600330352783 0.016269000247120857 0.024217000231146812 -0.14216099679470062 0.013063999824225903
          0.022949999198317528 -0.14304399490356445 0.014632999897003174 0.026189999654889107 -0.14268800616264343 0.012640000320971012
          0.028873000293970108 -0.14444300532341003 0.013265999965369701 0.02740499936044216 -0.1450670063495636 0.02490299940109253
          0.02818799950182438 -0.14301900565624237 0.025384999811649323 0.02922699972987175 -0.14254899322986603 0.024661999195814133
          0.023446999490261078 -0.1429470032453537 0.015448999591171741 0.023719999939203262 -0.14354999363422394 0.01936200074851513
          0.026593999937176704 -0.14390599727630615 0.025498999282717705 0.025147000327706337 -0.1432269960641861 0.024958999827504158
          0.027219999581575394 -0.14047999680042267 0.023269999772310257 0.02652299962937832 -0.14162799715995789 0.02493100054562092
          0.026643000543117523 -0.14157600700855255 0.019504999741911888 0.025784000754356384 -0.1425590068101883 0.019550999626517296
          0.027132999151945114 -0.14114899933338165 0.02064099907875061 0.025064999237656593 -0.1428530067205429 0.02439899928867817
          0.02483999915421009 -0.14306600391864777 0.01923000067472458 0.02903199940919876 -0.140407994389534 0.022895000874996185
          0.02840700000524521 -0.14115199446678162 0.014379999600350857 0.024907000362873077 -0.1409820020198822 0.013500000350177288
          0.025756999850273132 -0.14164899289608002 0.016178999096155167 0.027383999899029732 -0.14163899421691895 0.013214999809861183
          0.02708500064909458 -0.1429630070924759 0.02566399984061718 0.02687700092792511 -0.1423410028219223 0.02574699930846691
          0.028511999174952507 -0.14130200445652008 0.024647999554872513 0.024612000212073326 -0.14328500628471375 0.018206000328063965
          0.025940999388694763 -0.14214499294757843 0.017868999391794205 0.02606000006198883 -0.14263099431991577 0.025661999359726906
          0.02773600071668625 -0.13950400054454803 0.022474000230431557 0.027615999802947044 -0.14012999832630157 0.02371099963784218
          0.027187999337911606 -0.14040400087833405 0.024349000304937363 0.027091000229120255 -0.14037300646305084 0.020114999264478683
          0.02599100023508072 -0.14201100170612335 0.01908300071954727 0.026794999837875366 -0.14008399844169617 0.01912900060415268
          0.026528000831604004 -0.14157499372959137 0.018695000559091568 0.025647999718785286 -0.14263099431991577 0.018709000200033188
          0.02741999924182892 -0.13914600014686584 0.020831000059843063 0.026287000626325607 -0.1402300000190735 0.013957999646663666
          0.026623999699950218 -0.1394760012626648 0.015273000113666058 0.02578200027346611 -0.13995400071144104 0.014289000071585178
          0.026466000825166702 -0.13987299799919128 0.01594099961221218 0.02672399953007698 -0.14110800623893738 0.01787699945271015
          <InformationKey name="L2_NORM_RANGE" location="vtkDataArray" length="2">
            <Value index="0">
              0.14281336359
            </Value>
            <Value index="1">
              0.16679692924
            </Value>
          </InformationKey>
        </DataArray>
      </Points>
      <Verts>
        <DataArray type="Int64" Name="connectivity" format="ascii" RangeMin="1e+299" RangeMax="-1e+299">
        </DataArray>
        <DataArray type="Int64" Name="offsets" format="ascii" RangeMin="1e+299" RangeMax="-1e+299">
        </DataArray>
      </Verts>
      <Lines>
        <DataArray type="Int64" Name="connectivity" format="ascii" RangeMin="1e+299" RangeMax="-1e+299">
        </DataArray>
        <DataArray type="Int64" Name="offsets" format="ascii" RangeMin="1e+299" RangeMax="-1e+299">
        </DataArray>
      </Lines>
      <Strips>
        <DataArray type="Int64" Name="connectivity" format="ascii" RangeMin="1e+299" RangeMax="-1e+299">
        </DataArray>
        <DataArray type="Int64" Name="offsets" format="ascii" RangeMin="1e+299" RangeMax="-1e+299">
        </DataArray>
      </Strips>
      <Polys>
        <DataArray type="Int32" Name="connectivity" format="ascii" RangeMin="0" RangeMax="133">
          0 1 2 3 1 0
          0 4 3 5 0 2
          0 5 6 7 0 6
          7 8 0 4 0 8
          9 2 1 3 9 1
          10 2 11 11 2 9
          5 2 10 3 12 9
          13 3 4 13 12 3
          14 4 8 14 15 4
          15 13 4 16 5 17
          17 5 10 16 6 5
          18 6 16 6 18 7
          19 8 7 7 20 21
          21 22 7 22 19 7
          18 20 7 23 8 19
          8 23 14 12 24 9
          25 26 9 26 11 9
          9 27 25 9 28 27
          28 9 24 29 30 10
          17 10 31 31 10 30
          11 29 10 29 11 32
          32 11 26 33 12 13
          33 24 12 34 33 13
          13 15 34 15 14 35
          35 14 23 34 15 36
          15 37 36 15 35 37
          38 39 16 16 17 40
          41 16 40 38 16 42
          43 42 16 43 16 41
          18 16 39 17 44 40
          31 45 17 45 46 17
          44 17 46 47 20 18
          18 39 47 19 48 23
          19 22 48 20 47 21
          21 47 49 50 21 49
          50 22 21 50 51 22
          22 51 48 35 23 48
          33 28 24 26 25 27
          26 27 32 27 28 52
          27 52 32 53 52 28
          28 33 53 29 54 30
          29 32 54 55 56 30
          55 30 54 56 57 30
          30 57 31 45 31 57
          54 32 58 52 58 32
          34 53 33 53 34 36
          37 35 48 58 52 36
          37 59 36 36 59 58
          53 36 52 60 61 37
          37 61 59 60 37 48
          38 62 39 63 62 38
          38 42 63 62 47 39
          41 40 64 65 66 40
          44 65 40 40 66 64
          41 64 43 67 63 42
          43 67 42 68 43 64
          69 43 68 43 69 70
          43 70 71 43 71 67
          72 44 73 73 44 46
          72 65 44 45 57 46
          57 74 46 74 73 46
          75 76 47 75 47 62
          77 49 47 76 77 47
          51 60 48 50 49 77
          78 50 77 78 51 50
          78 61 51 60 51 61
          79 55 54 54 58 80
          80 79 54 63 67 55
          55 79 63 55 67 81
          56 55 81 81 74 56
          56 74 57 80 58 59
          59 61 82 82 83 59
          83 80 59 78 82 61
          63 75 62 75 63 79
          84 64 66 68 64 84
          66 65 85 72 86 65
          65 87 85 88 87 65
          88 65 86 66 85 84
          81 67 89 90 67 71
          67 90 89 91 68 92
          84 92 68 91 69 68
          93 70 69 69 91 93
          70 93 94 94 71 70
          94 90 71 86 72 95
          73 95 72 95 73 96
          73 74 81 81 89 73
          97 73 89 96 73 97
          79 80 75 76 75 80
          76 83 77 83 76 80
          78 77 82 83 82 77
          85 98 84 98 92 84
          87 99 85 98 85 99
          100 88 86 95 100 86
          101 87 88 102 87 103
          104 105 87 106 104 87
          107 87 101 103 87 107
          108 99 87 102 106 87
          108 87 105 88 100 101
          109 89 90 97 89 109
          110 109 90 110 90 94
          111 93 91 112 111 91
          92 112 91 112 92 98
          113 94 93 111 113 93
          113 110 94 100 95 96
          114 96 115 100 96 114
          115 96 97 109 116 97
          115 97 116 117 98 99
          118 98 117 118 112 98
          108 117 99 114 119 100
          100 119 101 101 119 107
          120 102 121 122 121 102
          102 103 122 106 102 120
          103 107 119 119 115 103
          115 122 103 106 123 104
          105 104 124 123 125 104
          126 104 125 104 126 124
          117 108 105 105 127 117
          127 105 124 128 123 106
          120 128 106 110 128 109
          120 109 128 116 109 121
          120 121 109 129 110 113
          110 129 130 110 130 128
          111 131 129 129 113 111
          131 111 112 132 130 112
          130 131 112 132 112 133
          133 112 118 115 119 114
          115 116 122 121 122 116
          118 117 127 126 133 118
          118 127 124 126 118 124
          128 125 123 128 132 125
          132 133 125 125 133 126
          128 130 132 130 129 131
        </DataArray>
        <DataArray type="Int32" Name="offsets" format="ascii" RangeMin="3" RangeMax="792">
          3 6 9 12 15 18
          21 24 27 30 33 36
          39 42 45 48 51 54
          57 60 63 66 69 72
          75 78 81 84 87 90
          93 96 99 102 105 108
          111 114 117 120 123 126
          129 132 135 138 141 144
          147 150 153 156 159 162
          165 168 171 174 177 180
          183 186 189 192 195 198
          201 204 207 210 213 216
          219 222 225 228 231 234
          237 240 243 246 249 252
          255 258 261 264 267 270
          273 276 279 282 285 288
          291 294 297 300 303 306
          309 312 315 318 321 324
          327 330 333 336 339 342
          345 348 351 354 357 360
          363 366 369 372 375 378
          381 384 387 390 393 396
          399 402 405 408 411 414
          417 420 423 426 429 432
          435 438 441 444 447 450
          453 456 459 462 465 468
          471 474 477 480 483 486
          489 492 495 498 501 504
          507 510 513 516 519 522
          525 528 531 534 537 540
          543 546 549 552 555 558
          561 564 567 570 573 576
          579 582 585 588 591 594
          597 600 603 606 609 612
          615 618 621 624 627 630
          633 636 639 642 645 648
          651 654 657 660 663 666
          669 672 675 678 681 684
          687 690 693 696 699 702
          705 708 711 714 717 720
          723 726 729 732 735 738
          741 744 747 750 753 756
          759 762 765 768 771 774
          777 780 783 786 789 792
        </DataArray>
      </Polys>
    </Piece>
  </PolyData>
</VTKFile>
