<?xml version="1.0"?>
<VTKFile type="PolyData" version="0.1" byte_order="LittleEndian" header_type="UInt32" compressor="vtkZLibDataCompressor">
  <PolyData>
    <Piece NumberOfPoints="116" NumberOfVerts="0" NumberOfLines="0" NumberOfStrips="0" NumberOfPolys="227">
      <PointData Normals="Normals">
        <DataArray type="Float32" Name="Normals" NumberOfComponents="3" format="ascii" RangeMin="0.9999994165157172" RangeMax="1.0000006505735757">
          -0.4618839919567108 -0.015336999669671059 -0.8868079781532288 -0.6988670229911804 -0.32765498757362366 -0.6357880234718323
          -0.8093240261077881 -0.23892100155353546 -0.5365740060806274 -0.3740929961204529 0.154230996966362 -0.9144769906997681
          0.03393099829554558 -0.0737600028514862 -0.9966989755630493 -0.05073000118136406 0.39133700728416443 -0.9188479781150818
          -0.8990100026130676 -0.43586501479148865 -0.042465999722480774 -0.46748799085617065 -0.6054859757423401 -0.6440820097923279
          -0.7386959791183472 -0.6630039811134338 -0.12146800011396408 -0.8642269968986511 -0.501899003982544 -0.034772999584674835
          -0.724232017993927 -0.3494270145893097 -0.5944650173187256 -0.36506301164627075 -0.21117599308490753 -0.906715989112854
          0.46573498845100403 0.13833099603652954 -0.8740460276603699 0.28308698534965515 0.7511979937553406 -0.5962910056114197
          -0.17848500609397888 0.7860119938850403 -0.591884970664978 -0.07487999647855759 -0.7221930027008057 -0.6876270174980164
          0.3394150137901306 -0.5430700182914734 -0.7680320143699646 0.45730000734329224 -0.2540769875049591 -0.8522449731826782
          0.6163290143013 0.5777559876441956 -0.535103976726532 0.8865659832954407 0.10791800171136856 -0.4498380124568939
          0.28732699155807495 0.9192249774932861 -0.26920101046562195 -0.796317994594574 -0.42483198642730713 0.43057599663734436
          -0.8789820075035095 -0.40211498737335205 0.25630900263786316 -0.6996610164642334 -0.7139080166816711 0.02845500037074089
          -0.19995500147342682 -0.977167010307312 -0.0718500018119812 -0.8282520174980164 -0.44565701484680176 -0.3396899998188019
          -0.7755860090255737 -0.439179003238678 0.45341700315475464 -0.356456995010376 -0.2695919871330261 -0.8945720195770264
          0.30870598554611206 -0.03932899981737137 -0.9503440260887146 0.7273160219192505 0.15963299572467804 -0.6674799919128418
          0.8865309953689575 0.318217009305954 -0.33585798740386963 0.6424649953842163 0.7641199827194214 -0.05795900151133537
          0.40591099858283997 -0.8845790028572083 -0.22968600690364838 0.8660899996757507 -0.32167598605155945 -0.38263800740242004
          0.7828549742698669 -0.5950819849967957 -0.18170399963855743 0.7897719740867615 0.606024980545044 0.09483599662780762
          0.9901450276374817 0.10592599958181381 0.09161300212144852 0.5191919803619385 0.8375930190086365 0.16993799805641174
          -0.34424299001693726 -0.31989800930023193 0.8827019929885864 -0.4580940008163452 -0.22317400574684143 0.8604320287704468
          -0.24285699427127838 0.13078199326992035 0.9612060189247131 -0.7207430005073547 -0.583594024181366 0.37409698963165283
          -0.28272199630737305 -0.9586259722709656 -0.03323499858379364 0.013554000295698643 -0.998537003993988 -0.05235600098967552
          0.5661540031433105 -0.8174440264701843 0.10608699917793274 -0.8297230005264282 -0.4462429881095886 0.3352999985218048
          -0.2727609872817993 -0.4219290018081665 -0.8646259903907776 -0.810588002204895 -0.4922640025615692 -0.31721198558807373
          0.4045189917087555 -0.24586400389671326 -0.8808609843254089 0.8970789909362793 0.08684699982404709 -0.4332520067691803
          0.9279999732971191 0.23648199439048767 0.28791099786758423 0.907496988773346 0.4072679877281189 0.10287299752235413
          0.6724590063095093 0.739018976688385 0.040630001574754715 0.917506992816925 -0.38589900732040405 0.09624700248241425
          0.8269690275192261 0.5528590083122253 0.10232199728488922 0.9978920221328735 -0.06488599628210068 0.0015140000032261014
          -0.7634379863739014 -0.24463999271392822 0.5977579951286316 0.41867899894714355 0.0071749999187886715 0.9081060290336609
          0.12889400124549866 -0.22045500576496124 0.9668430089950562 -0.048144999891519547 -0.20786699652671814 0.9769719839096069
          0.5778329968452454 0.21373699605464935 0.7876710295677185 -0.11827100068330765 0.1823129951953888 0.9761009812355042
          -0.3342309892177582 -0.041381001472473145 0.9415820240974426 -0.3775089979171753 -0.42602500319480896 0.8221859931945801
          0.10877999663352966 -0.41059398651123047 0.9053059816360474 0.06591600179672241 0.11608199775218964 0.9910500049591064
          0.38511401414871216 -0.00609700009226799 0.9228489995002747 0.2848550081253052 0.6413580179214478 0.7124019861221313
          0.17659799754619598 0.7631070017814636 0.6216760277748108 -0.24635100364685059 -0.795009970664978 0.5543199777603149
          0.4559670090675354 -0.8805189728736877 0.12953899800777435 0.49673300981521606 -0.8676720261573792 0.020044999197125435
          0.8076639771461487 -0.5891540050506592 -0.024027999490499496 -0.9602850079536438 -0.24244800209999084 -0.1381009966135025
          -0.9386640191078186 -0.2696149945259094 0.21498200297355652 -0.7538959980010986 -0.34260499477386475 -0.5605909824371338
          -0.14254699647426605 -0.2865000069141388 -0.9474160075187683 0.4127329885959625 -0.1043189987540245 -0.9048590064048767
          0.7846559882164001 -0.06999000161886215 -0.6159679889678955 0.8392350077629089 0.5106490254402161 -0.18687500059604645
          0.857716977596283 0.18220899999141693 0.48075100779533386 0.565750002861023 -0.018776999786496162 0.8243629932403564
          0.7089980244636536 0.6304600238800049 0.31597900390625 0.6728730201721191 0.7368469834327698 0.06556399911642075
          0.4319300055503845 0.882161021232605 0.1876939982175827 0.9628159999847412 0.2696549892425537 0.016450999304652214
          0.9166960120201111 -0.39422300457954407 -0.0652410015463829 -0.9487299919128418 0.3160409927368164 0.005518000107258558
          -0.5646740198135376 0.06222200021147728 0.8229650259017944 -0.9206900000572205 0.20713099837303162 0.3307960033416748
          -0.11381199955940247 0.3131740093231201 0.9428510069847107 0.3423730134963989 0.13400399684906006 0.9299589991569519
          0.5736179947853088 0.5357720255851746 0.6196060180664062 0.7559059858322144 -0.41729500889778137 0.5044509768486023
          0.8917239904403687 0.05179600045084953 0.44960498809814453 -0.8925079703330994 0.44477400183677673 -0.074863001704216
          -0.8330850005149841 0.27296000719070435 -0.4811049997806549 -0.6400290131568909 -0.06289999932050705 -0.7657719850540161
          0.28797000646591187 0.1501850038766861 -0.9457889795303345 -0.16208599507808685 0.10784599930047989 -0.980866014957428
          0.673130989074707 0.14811299741268158 -0.7245389819145203 0.45464399456977844 0.8488370180130005 0.26976901292800903
          0.04949599876999855 0.9985799789428711 -0.019717000424861908 0.5507460236549377 0.6248810291290283 0.5533559918403625
          0.5275819897651672 0.4715479910373688 -0.7066109776496887 0.13817499577999115 0.8526390194892883 -0.5038999915122986
          -0.6364690065383911 0.7160549759864807 0.286655992269516 -0.4978010058403015 0.8661540150642395 -0.04439400136470795
          -0.24208100140094757 0.8850449919700623 0.39760899543762207 0.22293800115585327 0.5345249772071838 0.815218985080719
          -0.6679440140724182 0.742842972278595 -0.04510100185871124 -0.42357099056243896 0.8800309896469116 -0.21478800475597382
          -0.31910398602485657 0.4974699914455414 -0.8066570162773132 0.2111479938030243 0.45789000391960144 -0.863569974899292
          0.1773429960012436 0.865103006362915 0.46919700503349304 -0.1722009927034378 0.983739972114563 0.05101900175213814
          <InformationKey name="L2_NORM_RANGE" location="vtkDataArray" length="2">
            <Value index="0">
              0.99999941652
            </Value>
            <Value index="1">
              1.0000006506
            </Value>
          </InformationKey>
        </DataArray>
      </PointData>
      <CellData>
      </CellData>
      <Points>
        <DataArray type="Float32" Name="Points" NumberOfComponents="3" format="ascii" RangeMin="0.10248296002617886" RangeMax="0.14507507573027928">
          0.01902499981224537 -0.13516800105571747 -0.024390999227762222 0.018743999302387238 -0.13855700194835663 -0.02368899993598461
          0.017906000837683678 -0.1362909972667694 -0.0231890007853508 0.01891399919986725 -0.134443998336792 -0.024174999445676804
          0.024450000375509262 -0.13671299815177917 -0.025397000834345818 0.021550999954342842 -0.13431000709533691 -0.025026999413967133
          0.017361000180244446 -0.13615599274635315 -0.02133299969136715 0.02080100029706955 -0.14105099439620972 -0.023786000907421112
          0.019680000841617584 -0.14080899953842163 -0.022045999765396118 0.012101000174880028 -0.12817400693893433 -0.019541999325156212
          0.015406999737024307 -0.1322759985923767 -0.02215700037777424 0.014782000333070755 -0.12672899663448334 -0.024178000167012215
          0.016705000773072243 -0.12622599303722382 -0.02403399907052517 0.020694000646471977 -0.1335189938545227 -0.023499999195337296
          0.020570000633597374 -0.1338919997215271 -0.024616999551653862 0.02162100002169609 -0.14135600626468658 -0.023896999657154083
          0.024091999977827072 -0.14031000435352325 -0.024467000737786293 0.024654999375343323 -0.1385989934206009 -0.024992000311613083
          0.024896999821066856 -0.13511499762535095 -0.024563999846577644 0.02583100087940693 -0.13730399310588837 -0.02429099939763546
          0.022622000426054 -0.13360799849033356 -0.02400200068950653 0.017875999212265015 -0.13606399297714233 -0.01700899936258793
          0.018679000437259674 -0.13873699307441711 -0.017635000869631767 0.019617000594735146 -0.14054900407791138 -0.019605999812483788
          0.02131599932909012 -0.14176400005817413 -0.022257000207901 0.009298999793827534 -0.12301500141620636 -0.02038699947297573
          0.01166599988937378 -0.12600499391555786 -0.017302999272942543 0.012388999573886395 -0.12122999876737595 -0.024483000859618187
          0.012138999998569489 -0.11507199704647064 -0.02532999962568283 0.014007000252604485 -0.11758799850940704 -0.024222999811172485
          0.015407999977469444 -0.12053799629211426 -0.023159999400377274 0.02132599987089634 -0.13324500620365143 -0.02167999930679798
          0.02402699925005436 -0.14117099344730377 -0.02313699945807457 0.02575399912893772 -0.13830099999904633 -0.024097999557852745
          0.024862000718712807 -0.14027200639247894 -0.023528000339865685 0.0251499991863966 -0.13552899658679962 -0.021984999999403954
          0.026019999757409096 -0.13759499788284302 -0.021987000480294228 0.023182999342679977 -0.1339150071144104 -0.022028999403119087
          0.007656999863684177 -0.11350700259208679 -0.014293000102043152 0.02029000036418438 -0.13896100223064423 -0.015212999656796455
          0.018720999360084534 -0.13469499349594116 -0.015706000849604607 0.02042900025844574 -0.14101600646972656 -0.01608400046825409
          0.021733000874519348 -0.14217300713062286 -0.017163999378681183 0.021424999460577965 -0.14157600700855255 -0.019555000588297844
          0.023845000192523003 -0.14112700521945953 -0.020448999479413033 0.004745999816805124 -0.11291900277137756 -0.016313999891281128
          0.009170999750494957 -0.11249300092458725 -0.026386000216007233 0.003926999866962433 -0.11146999895572662 -0.022659000009298325
          0.010243000462651253 -0.1123809963464737 -0.026277000084519386 0.012527000159025192 -0.10983700305223465 -0.024651000276207924
          0.012036999687552452 -0.11229400336742401 -0.01600099913775921 0.01667499914765358 -0.12300299853086472 -0.02019600011408329
          0.021250000223517418 -0.1334719955921173 -0.019610000774264336 0.02585200034081936 -0.1384429931640625 -0.02176699973642826
          0.025102000683546066 -0.13678699731826782 -0.019480999559164047 0.025383999571204185 -0.13773700594902039 -0.019497999921441078
          0.0029070000164210796 -0.10632699728012085 -0.01381400041282177 0.010925999842584133 -0.11319799721240997 -0.01372199971228838
          0.009279999881982803 -0.11077599972486496 -0.013129999861121178 0.007679999805986881 -0.10874699801206589 -0.012306000106036663
          0.017625000327825546 -0.12864600121974945 -0.015639999881386757 0.022187000140547752 -0.13619600236415863 -0.014120000414550304
          0.021436000242829323 -0.13645699620246887 -0.014316000044345856 0.021608000621199608 -0.14098000526428223 -0.015011999756097794
          0.024475999176502228 -0.139832004904747 -0.014173000119626522 0.024170000106096268 -0.13736100494861603 -0.013868000358343124
          0.02463199943304062 -0.13813899457454681 -0.013873999938368797 0.020313000306487083 -0.13390900194644928 -0.015893999487161636
          0.02207300066947937 -0.1345759928226471 -0.014888999983668327 0.021762000396847725 -0.14200900495052338 -0.015819000080227852
          0.023739999160170555 -0.14179900288581848 -0.015567000024020672 0.023708000779151917 -0.1410129964351654 -0.019658999517560005
          0.024450000375509262 -0.14024999737739563 -0.019626999273896217 0.002022000029683113 -0.10764200240373611 -0.021911999210715294
          0.0024349999148398638 -0.10790999978780746 -0.015799999237060547 0.003498000092804432 -0.10886699706315994 -0.02520200051367283
          0.0075079998932778835 -0.10758999735116959 -0.028663000091910362 0.009959000162780285 -0.10713200271129608 -0.028302999213337898
          0.010824000462889671 -0.10726899653673172 -0.027563000097870827 0.011648000217974186 -0.10184399783611298 -0.02441300079226494
          0.010762999765574932 -0.10456400364637375 -0.013566000387072563 0.010463000275194645 -0.11157800257205963 -0.01360000018030405
          0.021190999075770378 -0.133432999253273 -0.017330000177025795 0.02448900043964386 -0.13542500138282776 -0.016836000606417656
          0.022644000127911568 -0.13421300053596497 -0.017013000324368477 0.025894999504089355 -0.13769200444221497 -0.01709599979221821
          0.025560999289155006 -0.13987399637699127 -0.017278000712394714 0.0017320000333711505 -0.10558000206947327 -0.018893999978899956
          0.004139000084251165 -0.10395299643278122 -0.012307999655604362 0.0023060000967234373 -0.10411600023508072 -0.014897000044584274
          0.004898999817669392 -0.10334999859333038 -0.012218999676406384 0.009007999673485756 -0.10520800203084946 -0.012403000146150589
          0.024176999926567078 -0.13590799272060394 -0.014576000161468983 0.025054000318050385 -0.1402129977941513 -0.014894999563694
          0.025471000000834465 -0.13809099793434143 -0.014562999829649925 0.0017729999963194132 -0.10551399737596512 -0.0213639996945858
          0.003938999958336353 -0.10360900312662125 -0.026719000190496445 0.0043390002101659775 -0.10519800335168839 -0.02730800025165081
          0.0081599997356534 -0.10505200177431107 -0.028649000450968742 0.006752000190317631 -0.1052670031785965 -0.028873000293970108
          0.010583999566733837 -0.10598400235176086 -0.0278290007263422 0.008453000336885452 -0.10138799995183945 -0.014870000071823597
          0.01013800036162138 -0.1005299985408783 -0.023351000621914864 0.009758000262081623 -0.10259900242090225 -0.013867000117897987
          0.010418999940156937 -0.10239499807357788 -0.02672700025141239 0.00796900037676096 -0.10106399655342102 -0.026443000882864
          0.0035910001024603844 -0.10251999646425247 -0.013458999805152416 0.00710699986666441 -0.1022460013628006 -0.018880000337958336
          0.00520200002938509 -0.10178899765014648 -0.013284999877214432 0.007970999926328659 -0.10256099700927734 -0.012860000133514404
          0.004184000194072723 -0.10245300084352493 -0.02513200044631958 0.005843999795615673 -0.10153800249099731 -0.026461999863386154
          0.006074000149965286 -0.10256999731063843 -0.02795800007879734 0.00860000029206276 -0.10266199707984924 -0.02784699946641922
          0.007162999827414751 -0.10141599923372269 -0.013883999548852444 0.007687999866902828 -0.10098099708557129 -0.015699999406933784
          <InformationKey name="L2_NORM_RANGE" location="vtkDataArray" length="2">
            <Value index="0">
              0.10248296003
            </Value>
            <Value index="1">
              0.14507507573
            </Value>
          </InformationKey>
        </DataArray>
      </Points>
      <Verts>
        <DataArray type="Int64" Name="connectivity" format="ascii" RangeMin="1e+299" RangeMax="-1e+299">
        </DataArray>
        <DataArray type="Int64" Name="offsets" format="ascii" RangeMin="1e+299" RangeMax="-1e+299">
        </DataArray>
      </Verts>
      <Lines>
        <DataArray type="Int64" Name="connectivity" format="ascii" RangeMin="1e+299" RangeMax="-1e+299">
        </DataArray>
        <DataArray type="Int64" Name="offsets" format="ascii" RangeMin="1e+299" RangeMax="-1e+299">
        </DataArray>
      </Lines>
      <Strips>
        <DataArray type="Int64" Name="connectivity" format="ascii" RangeMin="1e+299" RangeMax="-1e+299">
        </DataArray>
        <DataArray type="Int64" Name="offsets" format="ascii" RangeMin="1e+299" RangeMax="-1e+299">
        </DataArray>
      </Strips>
      <Polys>
        <DataArray type="Int32" Name="connectivity" format="ascii" RangeMin="0" RangeMax="115">
          0 1 2 2 3 0
          4 1 0 4 0 5
          3 5 0 6 2 1
          7 1 4 1 7 8
          8 6 1 2 6 9
          3 2 10 9 10 2
          10 11 3 12 3 11
          3 12 13 3 13 14
          3 14 5 4 15 7
          4 16 15 4 17 16
          18 4 5 18 19 4
          17 4 19 5 14 20
          5 20 18 21 9 6
          22 21 6 8 23 6
          6 23 22 24 7 15
          24 8 7 23 8 24
          25 10 9 26 25 9
          9 21 26 11 10 25
          11 25 27 27 28 11
          11 28 12 28 29 12
          12 30 13 12 29 30
          20 14 13 30 31 13
          31 20 13 24 15 32
          15 16 32 17 33 16
          34 32 16 34 16 33
          19 33 17 35 19 18
          35 18 20 19 35 36
          36 33 19 37 35 20
          20 31 37 26 21 38
          22 39 21 38 21 40
          39 22 41 22 23 41
          41 23 42 43 23 24
          42 23 43 32 44 24
          24 44 43 26 45 25
          46 27 25 47 46 25
          47 25 45 38 45 26
          28 27 46 46 48 28
          28 48 49 49 29 28
          29 49 30 30 49 50
          30 50 51 51 31 30
          52 31 51 52 37 31
          44 32 34 53 34 33
          33 36 53 44 34 53
          37 54 35 36 35 54
          55 36 54 55 53 36
          54 37 52 56 45 38
          57 58 38 59 56 38
          38 58 59 40 60 38
          38 60 57 61 62 39
          39 63 64 41 63 39
          61 39 65 65 39 66
          39 64 66 62 40 39
          40 67 60 67 40 68
          40 62 61 40 61 68
          42 69 41 41 69 63
          42 70 69 42 43 70
          70 43 71 43 44 71
          53 72 44 72 71 44
          47 45 73 73 45 74
          56 74 45 47 75 46
          46 76 48 75 76 46
          47 73 75 77 48 76
          49 48 78 78 48 77
          78 79 49 49 80 50
          49 79 80 50 57 60
          81 57 50 60 51 50
          81 50 80 60 82 51
          52 51 82 83 54 52
          83 52 84 52 82 84
          53 55 72 85 54 83
          54 85 55 86 72 55
          85 86 55 87 74 56
          59 88 56 56 89 87
          89 56 88 58 57 81
          59 58 81 88 59 90
          59 81 91 59 91 90
          82 60 67 92 61 65
          61 92 68 69 64 63
          69 70 64 64 93 66
          64 70 93 65 66 92
          93 94 66 66 94 92
          67 84 82 84 67 68
          83 68 92 83 84 68
          72 70 71 72 86 70
          70 86 93 73 74 87
          73 87 95 95 96 73
          75 73 96 97 75 96
          97 76 75 77 76 98
          76 97 99 98 76 99
          77 100 78 100 77 98
          79 78 100 101 79 102
          79 101 103 80 79 103
          79 100 104 105 79 104
          79 105 102 81 80 91
          103 91 80 85 83 92
          85 92 94 85 94 86
          86 94 93 87 89 106
          87 107 95 107 87 106
          89 88 106 90 106 88
          108 106 90 109 90 91
          109 108 90 91 103 109
          107 110 95 96 95 110
          110 111 96 96 111 112
          97 96 112 112 99 97
          99 113 98 98 104 100
          104 98 113 99 112 113
          101 114 103 115 101 102
          115 114 101 111 107 102
          115 102 107 102 105 111
          114 109 103 105 104 113
          112 111 105 112 105 113
          107 106 108 111 110 107
          107 108 115 108 109 114
          114 115 108
        </DataArray>
        <DataArray type="Int32" Name="offsets" format="ascii" RangeMin="3" RangeMax="681">
          3 6 9 12 15 18
          21 24 27 30 33 36
          39 42 45 48 51 54
          57 60 63 66 69 72
          75 78 81 84 87 90
          93 96 99 102 105 108
          111 114 117 120 123 126
          129 132 135 138 141 144
          147 150 153 156 159 162
          165 168 171 174 177 180
          183 186 189 192 195 198
          201 204 207 210 213 216
          219 222 225 228 231 234
          237 240 243 246 249 252
          255 258 261 264 267 270
          273 276 279 282 285 288
          291 294 297 300 303 306
          309 312 315 318 321 324
          327 330 333 336 339 342
          345 348 351 354 357 360
          363 366 369 372 375 378
          381 384 387 390 393 396
          399 402 405 408 411 414
          417 420 423 426 429 432
          435 438 441 444 447 450
          453 456 459 462 465 468
          471 474 477 480 483 486
          489 492 495 498 501 504
          507 510 513 516 519 522
          525 528 531 534 537 540
          543 546 549 552 555 558
          561 564 567 570 573 576
          579 582 585 588 591 594
          597 600 603 606 609 612
          615 618 621 624 627 630
          633 636 639 642 645 648
          651 654 657 660 663 666
          669 672 675 678 681
        </DataArray>
      </Polys>
    </Piece>
  </PolyData>
</VTKFile>
