<?xml version="1.0"?>
<VTKFile type="PolyData" version="0.1" byte_order="LittleEndian" header_type="UInt32" compressor="vtkZLibDataCompressor">
  <PolyData>
    <Piece NumberOfPoints="122" NumberOfVerts="0" NumberOfLines="0" NumberOfStrips="0" NumberOfPolys="130">
      <PointData Normals="Normals">
        <DataArray type="Float32" Name="Normals" NumberOfComponents="3" format="ascii" RangeMin="0.9999994622043086" RangeMax="1.0000005595651158">
          0.7818580269813538 -0.6137099862098694 0.1098100021481514 0.5988630056381226 -0.6995109915733337 0.3899329900741577
          0.7390109896659851 -0.61142498254776 -0.2828820049762726 0.4971489906311035 -0.1372079998254776 0.8567479848861694
          0.11387299746274948 -0.16130900382995605 0.9803119897842407 0.7993649840354919 -0.5996450185775757 -0.037957001477479935
          0.9342650175094604 -0.12173199653625488 0.33515599370002747 0.2971299886703491 -0.8568639755249023 0.42130398750305176
          -0.3190999925136566 -0.3233639895915985 0.8908479809761047 0.8206700086593628 -0.5646780133247375 -0.087398000061512
          0.7160990238189697 -0.5631880164146423 -0.4123370051383972 0.2830890119075775 -0.6949920058250427 -0.6609439849853516
          0.028977999463677406 -0.7153649926185608 -0.6981499791145325 0.04713299870491028 -0.875698983669281 -0.48055100440979004
          0.09611500054597855 -0.9683619737625122 0.2302979975938797 0.5334720015525818 0.16804100573062897 0.8289570212364197
          0.22314800322055817 -0.005834999959915876 0.9747670292854309 0.8903809785842896 0.2725540101528168 0.36460399627685547
          -0.2441290020942688 -0.17073500156402588 0.9545940160751343 0.9528449773788452 -0.03133599832653999 -0.3018369972705841
          0.9103469848632812 0.26054298877716064 -0.32153600454330444 -0.7592909932136536 -0.534866988658905 0.3706679940223694
          -0.8229830265045166 -0.34153199195861816 0.453931987285614 0.6022999882698059 0.07834800332784653 -0.7944160103797913
          0.16325800120830536 -0.02105499990284443 -0.9863590002059937 -0.2154179960489273 -0.3200969994068146 -0.9225689768791199
          -0.6917650103569031 -0.5826349854469299 -0.426611989736557 0.5200520157814026 0.0792120024561882 0.8504530191421509
          0.058472998440265656 0.12292999774217606 0.9906910061836243 0.9422749876976013 0.06638199836015701 0.3281930088996887
          -0.4693300127983093 0.22105200588703156 0.8549069762229919 0.9562960267066956 0.03994499891996384 -0.2896580100059509
          -0.884198009967804 0.36014100909233093 0.29747501015663147 0.5039690136909485 0.2296459972858429 -0.8326330184936523
          0.5698689818382263 0.0037239999510347843 -0.8217269778251648 -0.6778669953346252 -0.3635059893131256 -0.6390299797058105
          -0.9403619766235352 0.33993399143218994 -0.01278000045567751 0.31326401233673096 0.1171950027346611 -0.9424070119857788
          0.15095999836921692 -0.07762199640274048 -0.9854879975318909 0.6388409733772278 0.00495600001886487 0.7693229913711548
          0.008113999851047993 0.03874000161886215 0.9992160201072693 0.9646900296211243 0.0010900000343099236 0.2633860111236572
          -0.7447620034217834 0.15223200619220734 0.6497340202331543 0.9234780073165894 0.0035600000992417336 -0.3836340010166168
          -0.9168890118598938 0.38967201113700867 0.08643399924039841 0.44791001081466675 0.009065000340342522 -0.8940330147743225
          -0.7203999757766724 0.36306101083755493 0.590939998626709 0.02910899929702282 0.008564000017940998 -0.9995399713516235
          -0.5429649949073792 0.037330999970436096 -0.8389250040054321 -0.5495730042457581 0.024869000539183617 -0.8350750207901001
          -0.8575140237808228 0.053144000470638275 0.5117080211639404 0.7572960257530212 -0.029385000467300415 0.6524109840393066
          -0.005400999914854765 -0.03662699833512306 0.99931401014328 0.9799720048904419 -0.02566700056195259 0.19747400283813477
          -0.87807297706604 -0.015189000405371189 0.4782859981060028 0.8368740081787109 -0.026057999581098557 -0.5467740297317505
          -0.9983429908752441 0.057493001222610474 0.002466999925673008 0.05906900018453598 -0.02374899946153164 -0.9979709982872009
          -0.9170870184898376 0.07308699935674667 0.3919309973716736 -0.6086829900741577 -0.012029999867081642 -0.7933220267295837
          -0.966871976852417 0.01962300017476082 0.25450798869132996 0.6910380125045776 -0.0002789999998640269 0.7228180170059204
          -0.17185400426387787 -0.005169000010937452 0.9851089715957642 0.9688019752502441 0.0023539999965578318 0.2478249967098236
          -0.9461519718170166 -0.0028780000284314156 0.32370901107788086 0.9116510152816772 -0.022671999409794807 -0.41034001111984253
          -0.9984639883041382 0.0056329998187720776 -0.055107999593019485 0.12273000180721283 -0.10328499972820282 -0.9870510101318359
          -0.9900379776954651 0.009158000349998474 0.14050400257110596 -0.4096589982509613 -0.07714299857616425 -0.9089710116386414
          -0.8988180160522461 -0.013639000244438648 -0.43810901045799255 0.6375719904899597 0.02047000080347061 0.7701190114021301
          -0.19278399646282196 0.017826000228524208 0.9810789823532104 0.9597129821777344 0.021560000255703926 0.2801550030708313
          -0.9202119708061218 0.00827999971807003 0.3913330137729645 0.9931550025939941 -0.01665399968624115 -0.11561200022697449
          -1 0.0003969999961555004 0.00021600000036414713 0.6605769991874695 -0.26931101083755493 -0.7007920145988464
          -0.9949229955673218 -0.0025839998852461576 0.10060600191354752 -0.24403700232505798 -0.24010500311851501 -0.9395719766616821
          -0.919052004814148 -0.04567699879407883 -0.3914810121059418 0.5522329807281494 -0.011869000270962715 0.8336060047149658
          -0.1655140072107315 0.038630999624729156 0.9854509830474854 0.9641969799995422 -0.042869001626968384 0.26170000433921814
          -0.7321900129318237 0.033070001751184464 0.6802970170974731 0.9990419745445251 -0.0403439998626709 0.016958000138401985
          -0.9827539920806885 -0.012102999724447727 0.1845189929008484 0.9007620215415955 -0.16982699930667877 -0.39973199367523193
          -0.9958940148353577 -0.03184900060296059 0.08474099636077881 -0.07668100297451019 -0.21403199434280396 -0.9738119840621948
          -0.943759024143219 -0.056898001581430435 -0.3257020115852356 0.21803000569343567 -0.30998098850250244 0.9254050254821777
          -0.05178999900817871 0.03081599995493889 0.9981819987297058 0.8124290108680725 -0.5223199725151062 0.259115993976593
          -0.19248899817466736 0.00926900003105402 0.9812549948692322 0.9599300026893616 -0.21111899614334106 -0.18429400026798248
          -0.8845880031585693 -0.10809099674224854 0.4536750018596649 0.8282960057258606 0.23283399641513824 -0.5096210241317749
          -0.9627019762992859 -0.14567700028419495 -0.22799700498580933 0.21645000576972961 0.19194099307060242 -0.9572399854660034
          -0.6451640129089355 -0.09502600133419037 -0.7581120133399963 -0.02387399971485138 -0.12190499901771545 0.9922549724578857
          -0.09655900299549103 0.029208000749349594 0.9948989748954773 0.8166660070419312 -0.3171919882297516 0.48212599754333496
          0.03718800097703934 0.05410100147128105 0.9978430271148682 0.9321359992027283 0.11785800009965897 -0.3423919975757599
          -0.7408170104026794 0.18511800467967987 0.6456949710845947 0.6321409940719604 0.5325599908828735 -0.5628299713134766
          -0.8412039875984192 0.1914380043745041 -0.5056949853897095 0.3561680018901825 0.4738140106201172 -0.8053849935531616
          -0.16840200126171112 0.19478799402713776 -0.966280996799469 -0.1058799996972084 0.5221350193023682 0.8462650179862976
          -0.008741999976336956 0.3215390145778656 0.9468560218811035 0.4360870122909546 0.7897869944572449 0.4313510060310364
          0.45797601342201233 0.31386199593544006 0.8317139744758606 0.5907610058784485 0.806784987449646 -0.009995999746024609
          0.35154300928115845 0.7535439729690552 0.555508017539978 0.5758879780769348 0.8171409964561462 -0.025158999487757683
          0.21557800471782684 0.9392369985580444 -0.2671310007572174 0.58160001039505 0.802935004234314 -0.1305209994316101
          0.48323899507522583 0.7980620265007019 -0.35996800661087036 0.5180559754371643 0.7391629815101624 0.43041500449180603
          <InformationKey name="L2_NORM_RANGE" location="vtkDataArray" length="2">
            <Value index="0">
              0.9999994622
            </Value>
            <Value index="1">
              1.0000005596
            </Value>
          </InformationKey>
        </DataArray>
      </PointData>
      <CellData>
      </CellData>
      <Points>
        <DataArray type="Float32" Name="Points" NumberOfComponents="3" format="ascii" RangeMin="0.06396433447698206" RangeMax="0.43254161729322477">
          -0.0003499999875202775 -0.42443299293518066 -0.02497600018978119 -0.004000000189989805 -0.4318229854106903 -0.02459999918937683
          -0.004000000189989805 -0.4254409968852997 -0.029999999329447746 0.0017130000051110983 -0.41536301374435425 -0.022136999294161797
          -0.004000000189989805 -0.42208200693130493 -0.024059999734163284 0.0026759998872876167 -0.4170440137386322 -0.027830999344587326
          0.008839000016450882 -0.40864500403404236 -0.025828000158071518 -0.006221999879926443 -0.4304800033569336 -0.026941999793052673
          -0.00828499998897314 -0.4205709993839264 -0.024102000519633293 0.0026759998872876167 -0.4170440137386322 -0.032168999314308167
          0.001475999946705997 -0.41989898681640625 -0.03753599897027016 -0.004000000189989805 -0.4227530062198639 -0.0416099987924099
          -0.00804699957370758 -0.4259450137615204 -0.03556999936699867 -0.006054999772459269 -0.4291360080242157 -0.030667999759316444
          -0.006054999772459269 -0.4291360080242157 -0.029332000762224197 0.0012369999894872308 -0.40411099791526794 -0.022792000323534012
          -0.004000000189989805 -0.4106599986553192 -0.020010000094771385 0.0034469999372959137 -0.3975600004196167 -0.027580000460147858
          -0.011220999993383884 -0.4115000069141388 -0.02006099931895733 0.008839000016450882 -0.40864500403404236 -0.03417100012302399
          0.0034469999372959137 -0.3975600004196167 -0.032419998198747635 -0.012217000126838684 -0.41905900835990906 -0.027329999953508377
          -0.017866000533103943 -0.412339985370636 -0.025495000183582306 0.004093999974429607 -0.4098210036754608 -0.04114000126719475
          -0.004000000189989805 -0.4109959900379181 -0.044039998203516006 -0.010665000416338444 -0.41502898931503296 -0.03917500004172325
          -0.012217000126838684 -0.41905900835990906 -0.032669998705387115 0.00012599999899975955 -0.38781899213790894 -0.024320999160408974
          -0.004000000189989805 -0.392520010471344 -0.022439999505877495 0.0021619999315589666 -0.3831160068511963 -0.027997000142931938
          -0.010745000094175339 -0.39873600006103516 -0.020716000348329544 0.0021619999315589666 -0.3831160068511963 -0.03200199827551842
          -0.018636999651789665 -0.40494999289512634 -0.02524399943649769 -0.0002699999895412475 -0.39470601081848145 -0.03513399884104729
          -0.0005089999758638442 -0.3700149953365326 -0.03480499982833862 -0.017866000533103943 -0.412339985370636 -0.03450499847531319
          -0.018636999651789665 -0.40494999289512634 -0.034756001085042953 -0.004000000189989805 -0.39184999465942383 -0.034860000014305115
          -0.009712999686598778 -0.4020960032939911 -0.037863001227378845 -0.000826000003144145 -0.3654809892177582 -0.025630999356508255
          -0.004000000189989805 -0.38244399428367615 -0.024329999461770058 0.0008789999992586672 -0.3485180139541626 -0.02841399982571602
          -0.008442999795079231 -0.39201799035072327 -0.0238840002566576 0.0008789999992586672 -0.3485180139541626 -0.031585998833179474
          -0.012986999936401844 -0.4015919864177704 -0.02707899920642376 -0.0009850000496953726 -0.30199599266052246 -0.03415000066161156
          -0.012986999936401844 -0.4015919864177704 -0.03292100131511688 -0.004000000189989805 -0.3569149971008301 -0.03539999946951866
          -0.004000000189989805 -0.25547099113464355 -0.03513000160455704 -0.010110000148415565 -0.3809340000152588 -0.0384100005030632
          -0.00828499998897314 -0.32853201031684875 -0.03589800000190735 0.0008399999933317304 -0.3011550009250641 -0.023336999118328094
          -0.004000000189989805 -0.32298898696899414 -0.021090000867843628 0.0031900000758469105 -0.27932101488113403 -0.027664000168442726
          -0.008205999620258808 -0.35238200426101685 -0.02421100065112114 0.0031900000758469105 -0.27932101488113403 -0.032336000353097916
          -0.00913500040769577 -0.3817729949951172 -0.028331000357866287 -0.0009050000226125121 -0.2183540016412735 -0.03426000103354454
          -0.00913500040769577 -0.3817729949951172 -0.031668998301029205 -0.004000000189989805 -0.15738700330257416 -0.03297000005841255
          -0.006459999829530716 -0.26958000659942627 -0.033385999500751495 0.001554999966174364 -0.22658400237560272 -0.022353999316692352
          -0.004000000189989805 -0.25547099113464355 -0.020010000094771385 0.004474000073969364 -0.1976960003376007 -0.027247000485658646
          -0.007966999895870686 -0.28519999980926514 -0.024538999423384666 0.004474000073969364 -0.1976960003376007 -0.03275299817323685
          -0.0073379999957978725 -0.31492799520492554 -0.028915999457240105 0.0003640000068116933 -0.1607459932565689 -0.036006998270750046
          -0.0073379999957978725 -0.31492799520492554 -0.031083999201655388 -0.004000000189989805 -0.12379699945449829 -0.03593999892473221
          -0.006777000147849321 -0.21936200559139252 -0.03382200002670288 0.0012369999894872308 -0.17636600136756897 -0.022792000323534012
          -0.004000000189989805 -0.20542100071907043 -0.020010000094771385 0.0034469999372959137 -0.14731000363826752 -0.027580000460147858
          -0.008125999942421913 -0.21046000719070435 -0.024320999160408974 0.0034469999372959137 -0.14731000363826752 -0.032419998198747635
          -0.007852000184357166 -0.21549899876117706 -0.028748000040650368 0.001554999966174364 -0.12194900214672089 -0.03764500096440315
          -0.007852000184357166 -0.21549899876117706 -0.031252000480890274 -0.004000000189989805 -0.09658800065517426 -0.04106999933719635
          -0.008442999795079231 -0.15604299306869507 -0.03611600026488304 0.00044299999717622995 -0.1259790062904358 -0.0238840002566576
          -0.004000000189989805 -0.15436400473117828 -0.021630000323057175 0.002420000033453107 -0.09759499877691269 -0.027914000675082207
          -0.0076500000432133675 -0.15133999288082123 -0.02497600018978119 0.002420000033453107 -0.09759499877691269 -0.032085999846458435
          -0.007852000184357166 -0.14831799268722534 -0.028748000040650368 0.0035379999317228794 -0.09171699732542038 -0.040376000106334686
          -0.007852000184357166 -0.14831799268722534 -0.031252000480890274 -0.004000000189989805 -0.08584000170230865 -0.048900000751018524
          -0.010745000094175339 -0.117078997194767 -0.03928399831056595 0.00012599999899975955 -0.10145899653434753 -0.024320999160408974
          -0.004000000189989805 -0.12043700367212296 -0.024329999461770058 0.00395999988541007 -0.08247999846935272 -0.02741299942135811
          -0.00749099999666214 -0.11808600276708603 -0.02519500069320202 0.00395999988541007 -0.08247999846935272 -0.032586999237537384
          -0.009906000457704067 -0.11573400348424911 -0.028080999851226807 0.0038560000248253345 -0.07777699828147888 -0.04081299901008606
          -0.009906000457704067 -0.11573400348424911 -0.031918998807668686 -0.004000000189989805 -0.07307499647140503 -0.04836000129580498
          -0.011220999993383884 -0.09440500289201736 -0.03993900120258331 0.0011579999700188637 -0.08130499720573425 -0.022901000455021858
          -0.004000000189989805 -0.08382300287485123 -0.026489999145269394 0.009352000430226326 -0.07878600060939789 -0.02566099911928177
          -0.009952000342309475 -0.07777699828147888 -0.02180900052189827 0.009352000430226326 -0.07878600060939789 -0.034338999539613724
          -0.01992099918425083 -0.07173100113868713 -0.024826999753713608 0.003140999935567379 -0.07257100194692612 -0.03982999920845032
          -0.01992099918425083 -0.07173100113868713 -0.035172998905181885 -0.004000000189989805 -0.06635600328445435 -0.04025999829173088
          -0.01193500030785799 -0.06904300302267075 -0.040922001004219055 -0.0004290000069886446 -0.06870800256729126 -0.025085000321269035
          -0.004000000189989805 -0.07038699835538864 -0.025949999690055847 0.0037040000315755606 -0.0670280009508133 -0.027496999129652977
          -0.006856999825686216 -0.06350100040435791 -0.026068000122904778 0.0037040000315755606 -0.0670280009508133 -0.032503001391887665
          -0.009393000043928623 -0.05661499872803688 -0.028248000890016556 -0.00019099999917671084 -0.0643410012125969 -0.035241998732089996
          -0.009393000043928623 -0.05661499872803688 -0.031752001494169235 -0.004000000189989805 -0.06165299937129021 -0.034860000014305115
          -0.007094999775290489 -0.05913500115275383 -0.03426000103354454 -0.004000000189989805 -0.06568499654531479 -0.029999999329447746
          <InformationKey name="L2_NORM_RANGE" location="vtkDataArray" length="2">
            <Value index="0">
              0.063964334477
            </Value>
            <Value index="1">
              0.43254161729
            </Value>
          </InformationKey>
        </DataArray>
      </Points>
      <Verts>
        <DataArray type="Int64" Name="connectivity" format="ascii" RangeMin="1e+299" RangeMax="-1e+299">
        </DataArray>
        <DataArray type="Int64" Name="offsets" format="ascii" RangeMin="1e+299" RangeMax="-1e+299">
        </DataArray>
      </Verts>
      <Lines>
        <DataArray type="Int64" Name="connectivity" format="ascii" RangeMin="1e+299" RangeMax="-1e+299">
        </DataArray>
        <DataArray type="Int64" Name="offsets" format="ascii" RangeMin="1e+299" RangeMax="-1e+299">
        </DataArray>
      </Lines>
      <Strips>
        <DataArray type="Int64" Name="connectivity" format="ascii" RangeMin="1e+299" RangeMax="-1e+299">
        </DataArray>
        <DataArray type="Int64" Name="offsets" format="ascii" RangeMin="1e+299" RangeMax="-1e+299">
        </DataArray>
      </Strips>
      <Polys>
        <DataArray type="Int32" Name="connectivity" format="ascii" RangeMin="0" RangeMax="121">
          0 1 2 0 3 4
          1 5 0 2 5 6
          3 0 1 7 2 1
          4 8 7 9 5 2
          10 9 2 11 10 2
          12 11 2 13 12 2
          14 13 2 7 14 2
          3 15 16 4 6 17
          15 3 4 16 18 8
          9 19 6 5 19 20
          17 6 7 8 21 14
          8 18 22 21 10 23
          19 9 11 24 23 10
          12 25 24 11 13 26
          25 12 14 21 26 13
          15 27 28 16 17 29
          27 15 16 28 30 18
          20 31 29 17 18 30
          32 22 23 33 20 19
          33 34 31 20 21 22
          35 26 22 32 36 35
          24 37 33 23 25 38
          37 24 26 35 38 25
          27 39 40 28 29 41
          39 27 28 40 42 30
          31 43 41 29 30 42
          44 32 34 45 43 31
          32 44 46 36 37 47
          34 33 47 48 45 34
          35 36 49 38 36 46
          50 49 38 49 47 37
          39 51 52 40 41 53
          51 39 40 52 54 42
          43 55 53 41 42 54
          56 44 45 57 55 43
          44 56 58 46 48 59
          57 45 46 58 60 50
          49 50 48 47 50 60
          59 48 51 61 62 52
          53 63 61 51 52 62
          64 54 55 65 63 53
          54 64 66 56 57 67
          65 55 56 66 68 58
          59 69 67 57 58 68
          70 60 60 70 69 59
          61 71 72 62 63 73
          71 61 62 72 74 64
          65 75 73 63 64 74
          76 66 67 77 75 65
          66 76 78 68 69 79
          77 67 68 78 80 70
          70 80 79 69 71 81
          82 72 73 83 81 71
          72 82 84 74 75 85
          83 73 74 84 86 76
          77 87 85 75 76 86
          88 78 79 89 87 77
          78 88 90 80 80 90
          89 79 81 91 92 82
          83 93 91 81 82 92
          94 84 85 95 93 83
          84 94 96 86 87 97
          95 85 86 96 98 88
          89 99 97 87 88 98
          100 90 90 100 99 89
          91 101 102 92 93 103
          101 91 92 102 104 94
          95 105 103 93 94 104
          106 96 97 107 105 95
          96 106 108 98 99 109
          107 97 98 108 110 100
          100 110 109 99 101 111
          112 102 103 113 111 101
          102 112 114 104 105 115
          113 103 104 114 116 106
          107 117 115 105 106 116
          118 108 109 119 117 107
          108 118 120 110 110 120
          119 109 111 121 112 113
          121 111 112 121 114 115
          121 113 114 121 116 117
          121 115 116 121 118 119
          121 117 118 121 120 120
          121 119
        </DataArray>
        <DataArray type="Int32" Name="offsets" format="ascii" RangeMin="3" RangeMax="500">
          3 7 10 14 17 21
          24 27 30 33 36 39
          42 46 50 54 58 62
          66 70 74 78 82 86
          90 94 98 102 106 110
          114 118 122 126 130 134
          138 142 146 150 154 158
          162 166 170 174 178 182
          186 190 194 198 202 206
          210 214 218 222 226 230
          234 238 242 246 250 254
          258 262 266 270 274 278
          282 286 290 294 298 302
          306 310 314 318 322 326
          330 334 338 342 346 350
          354 358 362 366 370 374
          378 382 386 390 394 398
          402 406 410 414 418 422
          426 430 434 438 442 446
          450 454 458 462 466 470
          473 476 479 482 485 488
          491 494 497 500
        </DataArray>
      </Polys>
    </Piece>
  </PolyData>
</VTKFile>
