<?xml version="1.0"?>
<VTKFile type="PolyData" version="0.1" byte_order="LittleEndian" header_type="UInt32" compressor="vtkZLibDataCompressor">
  <PolyData>
    <Piece NumberOfPoints="1000" NumberOfVerts="0" NumberOfLines="0" NumberOfStrips="0" NumberOfPolys="1455">
      <PointData Normals="Normals">
        <DataArray type="Float32" Name="Normals" NumberOfComponents="3" format="ascii" RangeMin="0.9999992419886565" RangeMax="1.0000007586750357">
          0.9052910208702087 -0.3239879906177521 0.2747359871864319 0.8823829889297485 -0.33132800459861755 -0.3340989947319031
          0.9297329783439636 0.317577987909317 -0.18638800084590912 0.8850589990615845 0.4651769995689392 0.01676500029861927
          0.86735999584198 0.4332030117511749 0.24499399960041046 0.8275449872016907 0.25504299998283386 0.5001220107078552
          0.7719870209693909 -0.2510319948196411 0.583968997001648 0.5639479756355286 -0.6877650022506714 0.4571020007133484
          0.4624280035495758 -0.8429849743843079 0.27483999729156494 0.4246140122413635 -0.8955950140953064 0.13271500170230865
          0.5406550168991089 -0.8383809924125671 -0.06935100257396698 0.411655992269516 -0.19848200678825378 -0.8894630074501038
          0.5528929829597473 0.5909460186958313 -0.5874450206756592 0.1362289935350418 -0.8824779987335205 -0.45019400119781494
          0.5650650262832642 0.8060680031776428 -0.1759440004825592 0.5471540093421936 0.7953259944915771 0.2609190046787262
          0.5271999835968018 0.5261759757995605 0.6672319769859314 0.5111439824104309 -0.1411440074443817 0.8478270173072815
          0.2703379988670349 -0.7344260215759277 0.6225230097770691 0.0965149998664856 -0.9460330009460449 0.3093630075454712
          0.049942001700401306 -0.9984599947929382 -0.024174999445676804 -0.36320701241493225 0.09185399860143661 -0.9271699786186218
          -0.21838100254535675 0.7040680050849915 -0.6757199764251709 -0.5198550224304199 -0.5626829862594604 -0.6427590250968933
          -0.34109100699424744 0.8822839856147766 -0.32439500093460083 -0.5764709711074829 -0.7928320169448853 -0.19773399829864502
          -0.5706340074539185 0.7967299818992615 0.1989929974079132 -0.3070650100708008 0.5267109870910645 0.7926459908485413
          -0.05414900183677673 0.004085000138729811 0.9985250234603882 -0.16104300320148468 -0.5554599761962891 0.8158000111579895
          -0.4801270067691803 -0.8033919930458069 0.3521920144557953 -0.49683499336242676 0.1404390037059784 -0.8564059734344482
          -0.35454100370407104 0.6563760042190552 -0.6659370064735413 -0.66771000623703 -0.39864200353622437 -0.6286879777908325
          -0.46920299530029297 0.8153179883956909 -0.33927100896835327 -0.7437030076980591 -0.625997006893158 -0.234593003988266
          -0.6501110196113586 0.7564169764518738 0.07203900068998337 -0.6673579812049866 -0.704800009727478 0.24060599505901337
          -0.42741501331329346 0.6194049715995789 0.6585249900817871 -0.21933099627494812 0.002242000075057149 0.9756479859352112
          -0.3611389994621277 -0.6115450263023376 0.7039819955825806 -0.06483499705791473 -0.06830400228500366 -0.9955559968948364
          0.1795469969511032 0.624770998954773 -0.7598850131034851 -0.31250500679016113 -0.7118790149688721 -0.6289420127868652
          0.25641998648643494 0.9176160097122192 -0.3036920130252838 -0.40049800276756287 -0.9035339951515198 -0.15240399539470673
          0.2275490015745163 0.9417210221290588 0.24775700271129608 -0.4361029863357544 -0.8264539837837219 0.3560740053653717
          0.07675399631261826 0.5917149782180786 0.8024849891662598 -0.34761399030685425 -0.3820050060749054 0.8562930226325989
          -0.10923200100660324 0.162650004029274 0.9806190133094788 0.2570970058441162 -0.14184799790382385 -0.9559190273284912
          0.43357598781585693 0.6187490224838257 -0.6551039814949036 -0.00900499988347292 -0.8177210092544556 -0.575543999671936
          0.4303790032863617 0.8770920038223267 -0.21326899528503418 -0.11163099855184555 -0.988618016242981 -0.10085699707269669
          0.3568919897079468 0.835686981678009 0.4174390137195587 -0.1879580020904541 -0.787056028842926 0.5875499844551086
          0.04091599956154823 0.2339009940624237 0.9713990092277527 -0.12316100299358368 0.1462240070104599 0.9815549850463867
          -0.09502899646759033 0.2540239989757538 0.9625179767608643 0.3285579979419708 -0.06665799766778946 -0.9421290159225464
          0.43619200587272644 0.6906279921531677 -0.5768619775772095 0.1669819951057434 -0.7756519913673401 -0.608672022819519
          0.4489549994468689 0.8803799748420715 -0.1528729945421219 0.08333700150251389 -0.9894030094146729 -0.11889900267124176
          0.3849849998950958 0.8009830117225647 0.45848900079727173 0.06658399850130081 -0.8039810061454773 0.5909150242805481
          0.09681300073862076 0.15803200006484985 0.9826760292053223 0.15962299704551697 0.02068999968469143 0.9869610071182251
          0.0917460024356842 0.12518499791622162 0.9878820180892944 -0.03905799984931946 0.10803499817848206 -0.9933789968490601
          0.07018999755382538 0.8023110032081604 -0.5927659869194031 -0.014413000084459782 -0.6673669815063477 -0.7445899844169617
          0.19527600705623627 0.9625130295753479 -0.1882459968328476 -0.039229001849889755 -0.9790830016136169 -0.19964499771595
          0.15907299518585205 0.901868999004364 0.40165698528289795 0.020332999527454376 -0.834551990032196 0.550553023815155
          0.05422399938106537 0.33402198553085327 0.9410039782524109 0.27409499883651733 -0.19499799609184265 0.94172602891922
          0.2269030064344406 0.07199999690055847 0.9712520241737366 -0.7995020151138306 0.15316499769687653 -0.5808069705963135
          -0.8185539841651917 0.36876198649406433 -0.440434992313385 -0.6484689712524414 -0.16864599287509918 -0.7423250079154968
          -0.5132650136947632 0.7955250144004822 -0.3220230042934418 -0.6952109932899475 -0.617127001285553 -0.36855900287628174
          -0.443244993686676 0.8463889956474304 0.2952280044555664 -0.6532310247421265 -0.534974992275238 0.5358099937438965
          -0.39118000864982605 0.4292519986629486 0.8140760064125061 -0.10304799675941467 0.024102000519633293 0.9943839907646179
          -0.08824499696493149 0.259103000164032 0.9618099927902222 -0.9863680005073547 0.16176100075244904 -0.030199000611901283
          -0.9243019819259644 -0.3618380129337311 -0.12140200287103653 -0.816985011100769 0.43718498945236206 -0.3760389983654022
          -0.9459069967269897 -0.08380399644374847 -0.31342899799346924 -0.9134789705276489 0.23673899471759796 -0.33092400431632996
          -0.9836770296096802 0.17992299795150757 -0.0025579999200999737 -0.9666669964790344 0.1967339962720871 0.1638599932193756
          -0.8926740288734436 0.32514798641204834 0.3121100068092346 -0.6093969941139221 0.37667399644851685 0.6976770162582397
          -0.530128002166748 0.5234249830245972 0.6670759916305542 -0.8630239963531494 0.35350900888442993 -0.36086198687553406
          -0.9166439771652222 0.060986001044511795 -0.39502501487731934 -0.7570580244064331 0.5122770071029663 -0.4055060148239136
          -0.9432269930839539 0.088578000664711 -0.3201189935207367 -0.8337230086326599 0.4664030075073242 -0.2955920100212097
          -0.9541059732437134 0.1994280070066452 -0.22340600192546844 -0.9195899963378906 0.3854359984397888 -0.076105996966362
          -0.8947929739952087 0.423352986574173 -0.1418360024690628 -0.8827170133590698 0.4180479943752289 0.21458600461483002
          -0.7987260222434998 0.5647339820861816 0.20763500034809113 -0.8288859724998474 0.4799540042877197 -0.28738799691200256
          0.6710799932479858 -0.7158570289611816 -0.1928730010986328 0.5226020216941833 -0.41013601422309875 -0.7474460005760193
          0.6237000226974487 -0.2319750040769577 -0.7464489936828613 0.9063869714736938 -0.07053600251674652 -0.4165180027484894
          0.9810439944267273 -0.10377799719572067 0.16365399956703186 0.8320289850234985 -0.3390609920024872 0.43904998898506165
          0.7038750052452087 -0.4975210130214691 0.5069839954376221 0.5718179941177368 -0.7045680284500122 0.42024898529052734
          0.45142799615859985 -0.8777940273284912 0.16028599441051483 0.4357829988002777 -0.875374972820282 -0.2093150019645691
          0.4823110103607178 -0.6591870188713074 -0.5769309997558594 0.027728000655770302 0.02897600084543228 -0.9991959929466248
          0.28604400157928467 0.580814003944397 -0.7621250152587891 -0.18121600151062012 -0.5448560118675232 -0.8187140226364136
          0.43183401226997375 0.8505480289459229 -0.3001450002193451 0.46448299288749695 0.8019580245018005 0.3756589889526367
          0.24562500417232513 0.2810719907283783 0.9277210235595703 0.14615100622177124 0.1984339952468872 0.96915602684021
          0.09718900173902512 -0.008500000461935997 0.9952300190925598 -0.1687999963760376 -0.8125209808349609 0.5579580068588257
          -0.268002986907959 -0.9202070236206055 -0.2852939963340759 -0.30819201469421387 0.11656899750232697 -0.9441559910774231
          0.10710500180721283 0.711080014705658 -0.6949049830436707 -0.7148740291595459 -0.5000039935112 -0.4888269901275635
          0.34861400723457336 0.889739990234375 -0.2946709990501404 -0.7913720011711121 -0.6113079786300659 -0.005737000145018101
          0.48875799775123596 0.7947610020637512 0.35982099175453186 0.3091050088405609 0.28747299313545227 0.9065390229225159
          0.17827700078487396 0.00834100041538477 0.9839450120925903 -0.06967800110578537 -0.19700899720191956 0.9779220223426819
          -0.5972909927368164 -0.5659909844398499 0.5682399868965149 -0.43934300541877747 -0.1320600062608719 -0.8885589838027954
          0.035886000841856 0.5983179807662964 -0.8004549741744995 -0.7680569887161255 -0.6385489702224731 0.048409998416900635
          0.30216801166534424 0.8811799883842468 -0.3636150062084198 -0.7651739716529846 -0.514153003692627 0.38749900460243225
          0.4225809872150421 0.8373370170593262 0.34683099389076233 -0.6688179969787598 -0.49927300214767456 0.5508260130882263
          0.27287501096725464 0.3531990051269531 0.894868016242981 0.12042900174856186 -0.01843300089240074 0.9925510287284851
          -0.14384999871253967 -0.23309700191020966 0.9617549777030945 -0.285057008266449 -0.5667979717254639 -0.7729700207710266
          -0.09454900026321411 -0.1955849975347519 -0.9761180281639099 -0.4595150053501129 -0.8878849744796753 0.022506000474095345
          0.30392199754714966 0.7445359826087952 -0.594389021396637 -0.48284998536109924 -0.7585309743881226 0.43759098649024963
          0.3601450026035309 0.8169249892234802 0.4504759907722473 -0.5160179734230042 -0.6505259871482849 0.5572630167007446
          0.07021699845790863 0.19892099499702454 0.9774969816207886 -0.17835499346256256 -0.07009299844503403 0.9814670085906982
          -0.07098700106143951 0.046241000294685364 0.9964050054550171 -0.1485549956560135 -0.36064401268959045 -0.9207969903945923
          0.06176900118589401 0.06989700347185135 -0.995639979839325 -0.32117998600006104 -0.7601720094680786 -0.5647839903831482
          0.41106200218200684 0.8517990112304688 -0.324755996465683 -0.3903779983520508 -0.9200059771537781 0.03454099968075752
          0.4251289963722229 0.8965979814529419 0.12400200217962265 -0.33796098828315735 -0.8499910235404968 0.40410199761390686
          0.263139009475708 0.4020580053329468 0.8769879937171936 -0.12544000148773193 -0.46362000703811646 0.8771100044250488
          0.04735400155186653 -0.11532899737358093 0.9921979904174805 0.10330499708652496 0.042688000947237015 -0.9937329888343811
          0.3578239977359772 0.7092859745025635 -0.6073510050773621 -0.10082700103521347 -0.47189900279045105 -0.875868022441864
          0.3629840016365051 0.9268280267715454 -0.09609100222587585 -0.2168940007686615 -0.9101020097732544 -0.35308900475502014
          0.33210399746894836 0.9425259828567505 0.036765001714229584 -0.1775590032339096 -0.8882700204849243 0.4236150085926056
          0.3188439905643463 0.6498450040817261 0.6899570226669312 -0.004730000160634518 -0.40359601378440857 0.9149249792098999
          0.16245900094509125 0.07307200133800507 0.9840059876441956 0.1695220023393631 0.16315999627113342 -0.9719269871711731
          0.27365100383758545 0.5365229845046997 -0.7982850074768066 0.12087000161409378 -0.20687399804592133 -0.9708729982376099
          0.4601700007915497 0.8301230072975159 -0.31486400961875916 0.03438299894332886 -0.8721799850463867 -0.48797500133514404
          0.539359986782074 0.8035110235214233 0.25191599130630493 0.11177700012922287 -0.8699290156364441 0.4803430140018463
          0.4410659968852997 0.4549640119075775 0.7736070156097412 0.2773210108280182 -0.21871399879455566 0.9355520009994507
          0.3437030017375946 0.17068199813365936 0.9234369993209839 -0.005520000122487545 0.4442499876022339 -0.8958860039710999
          0.1297989934682846 0.7688599824905396 -0.6261039972305298 -0.07733800262212753 -0.12415099889039993 -0.9892449975013733
          0.3575269877910614 0.8923640251159668 -0.27542999386787415 -0.19673199951648712 -0.8419679999351501 -0.5023800134658813
          0.4502190053462982 0.8795340061187744 0.15402300655841827 0.0022750000935047865 -0.8861280083656311 0.46343401074409485
          0.4964219927787781 0.617035984992981 0.6105999946594238 0.3919140100479126 -0.41322198510169983 0.8219799995422363
          0.5556790232658386 0.1131180003285408 0.8236650228500366 -0.6525570154190063 0.7454550266265869 -0.13589000701904297
          -0.19687199592590332 0.9748899936676025 0.10407199710607529 -0.864861011505127 -0.2753889858722687 -0.41973501443862915
          0.1481419950723648 0.988398015499115 0.03351600095629692 -0.8676360249519348 -0.45648398995399475 -0.197053000330925
          0.47709399461746216 0.864745020866394 0.15683600306510925 -0.6315439939498901 -0.6224480271339417 0.4622879922389984
          0.43235498666763306 0.6604459881782532 0.613906979560852 -0.0360880009829998 -0.45462098717689514 0.8899530172348022
          0.34550100564956665 0.13985000550746918 0.9279389977455139 -0.6606259942054749 0.31446999311447144 0.6816759705543518
          -0.41189301013946533 0.7876269817352295 0.45824500918388367 -0.9224420189857483 -0.1947689950466156 0.3334150016307831
          -0.3397420048713684 0.916143000125885 0.21273699402809143 -0.9951760172843933 -0.04463699832558632 0.08736400306224823
          0.0034799999557435513 0.9929350018501282 0.11860600113868713 -0.9646700024604797 -0.1319810003042221 0.22801999747753143
          -0.174919992685318 0.8695060014724731 0.46191099286079407 -0.8332909941673279 -0.10993099957704544 0.5417940020561218
          -0.5736410021781921 0.4171830117702484 0.704908013343811 -0.8815730214118958 0.4401319921016693 0.1706240028142929
          0.7627750039100647 -0.6428589820861816 -0.07004900276660919 0.5929589867591858 -0.48880401253700256 -0.6398990154266357
          0.8412860035896301 -0.11289799958467484 -0.5286700129508972 0.9687899947166443 0.042962998151779175 -0.24413099884986877
          0.9987170100212097 0.03960699960589409 0.031557001173496246 0.9682689905166626 -0.09362000226974487 0.2317119985818863
          0.7462610006332397 -0.5478180050849915 0.37814000248908997 0.39580899477005005 -0.8522379994392395 0.3420880138874054
          0.2852950096130371 -0.943274974822998 0.16981999576091766 0.23664599657058716 -0.9601070284843445 -0.14897699654102325
          0.3260209858417511 -0.8253740072250366 -0.46094200015068054 0.05281800031661987 0.022050000727176666 -0.9983609914779663
          0.28610798716545105 0.32762300968170166 -0.9004470109939575 -0.1469999998807907 -0.3533320128917694 -0.9238759875297546
          0.6041259765625 0.6767429709434509 -0.4207729995250702 0.7067189812660217 0.6724709868431091 0.2198439985513687
          0.60726398229599 0.3278619945049286 0.7236959934234619 0.4139299988746643 -0.1216920018196106 0.9021379947662354
          0.13616299629211426 -0.5202710032463074 0.8430759906768799 -0.23799699544906616 -0.8703979849815369 0.43100398778915405
          -0.37373799085617065 -0.856594979763031 -0.35576000809669495 -0.06165599822998047 -0.04796599969267845 -0.996944010257721
          0.3104209899902344 0.33573800325393677 -0.8893359899520874 -0.525505006313324 -0.21205100417137146 -0.8239409923553467
          0.5185009837150574 0.750465989112854 -0.40982601046562195 -0.8360750079154968 -0.45381098985671997 -0.3082750141620636
          0.5755580067634583 0.772005021572113 0.26970699429512024 0.43984100222587585 0.3811489939689636 0.81318199634552
          0.20726899802684784 -0.11360999941825867 0.9716650247573853 -0.1649630069732666 -0.4485189914703369 0.8784180283546448
          -0.6614109873771667 -0.593874990940094 0.45809200406074524 -0.12560099363327026 -0.19799800217151642 -0.9721220135688782
          0.3434639871120453 0.44437500834465027 -0.8273829817771912 -0.6259260177612305 -0.5195519924163818 -0.581620991230011
          0.45811399817466736 0.8136450052261353 -0.357928991317749 -0.8041399717330933 -0.5790010094642639 -0.13459700345993042
          0.4799700081348419 0.818638026714325 0.3153750002384186 -0.6659970283508301 -0.5834460258483887 0.46480000019073486
          0.2928990125656128 0.37736499309539795 0.8785250186920166 0.04987499862909317 0.023120999336242676 0.9984880089759827
          -0.2786000072956085 -0.2866170108318329 0.9166420102119446 -0.407370001077652 -0.32110700011253357 -0.8549500107765198
          -0.13427899777889252 0.3413659930229187 -0.9302899837493896 -0.4936780035495758 -0.666392982006073 -0.5587509870529175
          0.2376919984817505 0.875806987285614 -0.42007699608802795 -0.5004559755325317 -0.8651859760284424 -0.031564999371767044
          0.31319600343704224 0.874439001083374 0.37049400806427 -0.4482469856739044 -0.7758730053901672 0.4439550042152405
          0.0869859978556633 0.30959799885749817 0.9468799829483032 -0.20747900009155273 -0.18169499933719635 0.961217999458313
          -0.06177699938416481 0.08770699799060822 0.9942290186882019 -0.31236401200294495 -0.33973100781440735 -0.8871369957923889
          -0.21561700105667114 -0.06525199860334396 -0.9742950201034546 -0.2540319859981537 -0.551406979560852 -0.7946180105209351
          0.306102991104126 0.7793999910354614 -0.5466600060462952 -0.3095720112323761 -0.9421499967575073 -0.12852700054645538
          0.44063299894332886 0.8357099890708923 0.327767014503479 -0.27720901370048523 -0.8987060189247131 0.33982598781585693
          0.26652300357818604 0.3000360131263733 0.9159389734268188 -0.10597699880599976 -0.5235080122947693 0.8454040288925171
          0.07086200267076492 -0.1417890042066574 0.9873570203781128 0.055362001061439514 -0.06874000281095505 -0.9960970282554626
          0.17564800381660461 0.3097530007362366 -0.9344519972801208 0.007797999773174524 -0.5127419829368591 -0.858506977558136
          0.38863900303840637 0.8144670128822327 -0.43081700801849365 -0.07591100037097931 -0.9612110257148743 -0.26516199111938477
          0.44877299666404724 0.8688430190086365 0.20907899737358093 -0.0659789964556694 -0.9402539730072021 0.3340179920196533
          0.39966899156570435 0.5434160232543945 0.7382169961929321 0.06186499819159508 -0.5859490036964417 0.8079829812049866
          0.251803994178772 -0.027521999552845955 0.9673870205879211 0.09937000274658203 0.05562800168991089 -0.9934939742088318
          0.23504500091075897 0.4630590081214905 -0.8545939922332764 0.10223600268363953 -0.43386200070381165 -0.8951600193977356
          0.46603500843048096 0.800171971321106 -0.3775410056114197 0.06513100117444992 -0.9354209899902344 -0.3474839925765991
          0.5442360043525696 0.8198220133781433 0.17804299294948578 0.07141000032424927 -0.9239169955253601 0.3758710026741028
          0.46999698877334595 0.5485000014305115 0.691556990146637 0.1345299929380417 -0.41377800703048706 0.9003829956054688
          0.2670249938964844 0.15544100105762482 0.95107102394104 -0.02165300026535988 0.1007009968161583 -0.9946810007095337
          0.14171700179576874 0.3954310119152069 -0.907496988773346 -0.11293800175189972 -0.26638999581336975 -0.9572259783744812
          0.4190390110015869 0.8023639917373657 -0.42499101161956787 -0.24877500534057617 -0.8809660077095032 -0.40250399708747864
          0.513405978679657 0.8234500288963318 0.24154700338840485 -0.18375200033187866 -0.853763997554779 0.4871569871902466
          0.3751260042190552 0.4768890142440796 0.7948949933052063 -0.006085999775677919 -0.1896580010652542 0.9818310141563416
          0.14940300583839417 0.2152869999408722 0.9650539755821228 -0.3682650029659271 0.17124900221824646 -0.9138129949569702
          0.03292899951338768 0.5919139981269836 -0.8053280115127563 -0.8556110262870789 -0.07535599917173386 -0.5121039748191833
          0.09689400345087051 0.9423609972000122 -0.32026299834251404 -0.9765939712524414 -0.20584799349308014 -0.062369998544454575
          0.07139699906110764 0.9470869898796082 0.3129349946975708 -0.8423849940299988 -0.1938530057668686 0.5027999877929688
          -0.011474000290036201 0.5437170267105103 0.8391900062561035 -0.3495199978351593 -0.036524999886751175 0.9362170100212097
          -0.07551400363445282 0.15671299397945404 0.9847530126571655 -0.9190170168876648 0.39149901270866394 -0.04622599855065346
          -0.6065899729728699 0.7819039821624756 -0.14378400146961212 -0.9388790130615234 0.204912006855011 0.27661600708961487
          -0.6197569966316223 0.7847930192947388 0.0010930000571534038 -0.8931620121002197 0.3908199965953827 0.22253300249576569
          -0.6808140277862549 0.668936014175415 0.29835599660873413 -0.8697609901428223 0.4263649880886078 0.2484540045261383
          -0.6435409784317017 0.40816500782966614 0.6474999785423279 -0.7056300044059753 0.345753014087677 0.6184989809989929
          -0.5926300287246704 0.273717999458313 0.7575410008430481 -0.8622120022773743 0.37875598669052124 0.3363550007343292
          0.9416210055351257 -0.2510479986667633 -0.2243330031633377 0.5441719889640808 -0.2357490062713623 -0.805171012878418
          0.6423119902610779 -0.09793499857187271 -0.7601609826087952 0.8767690062522888 0.18143199384212494 -0.4453740119934082
          0.9779369831085205 0.17501300573349 0.11406300216913223 0.861607015132904 -0.13303600251674652 0.48983100056648254
          0.7920219898223877 -0.22930599749088287 0.5657910108566284 0.8079990148544312 -0.3060449957847595 0.5034629702568054
          0.7686920166015625 -0.6172609925270081 0.16763600707054138 0.6556439995765686 -0.61980801820755 -0.4312419891357422
          0.5653820037841797 -0.3414829969406128 -0.7508209943771362 -0.14385199546813965 0.0385110005736351 -0.9888499975204468
          -0.08234100043773651 0.49432098865509033 -0.8653709888458252 -0.018113000318408012 -0.43576300144195557 -0.899878978729248
          0.23441900312900543 0.8820419907569885 -0.4087179899215698 0.3948580026626587 0.840444028377533 0.37113499641418457
          0.27230700850486755 0.3169279992580414 0.9085190296173096 0.13246700167655945 0.02933499962091446 0.9907529950141907
          0.13567599654197693 -0.3098819851875305 0.9410449862480164 0.11416599899530411 -0.8978350162506104 0.4252740144729614
          0.040282998234033585 -0.9163249731063843 -0.398404985666275 -0.4943169951438904 0.09370200335979462 -0.8642169833183289
          -0.3584649860858917 0.4828050136566162 -0.7990009784698486 -0.49614301323890686 -0.30533498525619507 -0.8127809762954712
          0.029014000669121742 0.917743980884552 -0.39610999822616577 -0.5148339867591858 -0.8002269864082336 -0.30754199624061584
          0.2318210005760193 0.8652560114860535 0.4445109963417053 0.05853499844670296 0.22084300220012665 0.9735509753227234
          -0.15526500344276428 0.09958399832248688 0.9828410148620605 -0.24356000125408173 -0.013913000002503395 0.9697859883308411
          -0.40296700596809387 -0.7112069725990295 0.5760229825973511 -0.5482079982757568 -0.058681998401880264 -0.8342810273170471
          -0.3841559886932373 0.24787700176239014 -0.8893709778785706 -0.6817730069160461 -0.24831600487232208 -0.6881309747695923
          0.004801000002771616 0.8781329989433289 -0.47839298844337463 -0.7727370262145996 -0.6043090224266052 -0.19413700699806213
          0.22652700543403625 0.859824001789093 0.4575890004634857 -0.6441630125045776 -0.6546589732170105 0.39556899666786194
          0.09197600185871124 0.12578800320625305 0.9877840280532837 -0.08465400338172913 -0.18494200706481934 0.9790970087051392
          -0.3454020023345947 -0.341823011636734 0.8739879727363586 -0.4210030138492584 -0.16836600005626678 -0.8912960290908813
          -0.38193899393081665 0.02851800061762333 -0.9237470030784607 -0.42216798663139343 -0.2538459897041321 -0.8702509999275208
          0.004035999998450279 0.8380730152130127 -0.5455440282821655 -0.5281620025634766 -0.7761409878730774 -0.3444559872150421
          0.2413109987974167 0.8945630192756653 0.3761979937553406 -0.40803200006484985 -0.896353006362915 0.17338299751281738
          0.21352200210094452 0.3397490084171295 0.9159579873085022 -0.18758299946784973 -0.7940499782562256 0.5781850218772888
          0.07404600083827972 -0.3159619867801666 0.9458780288696289 -0.09234900027513504 -0.15892499685287476 -0.9829620122909546
          0.03961300104856491 0.1774590015411377 -0.983331024646759 -0.17769399285316467 -0.420864999294281 -0.8895490169525146
          0.31525999307632446 0.8001670241355896 -0.5102400183677673 -0.25281599164009094 -0.8981249928474426 -0.3598000109195709
          0.4427269995212555 0.8324459791183472 0.3332059979438782 -0.18100300431251526 -0.944586992263794 0.2738499939441681
          0.3432610034942627 0.34757301211357117 0.8725619912147522 -0.019509000703692436 -0.6373779773712158 0.7703040242195129
          0.17002999782562256 -0.14651599526405334 0.9744859933853149 0.018191000446677208 0.046025000512599945 -0.9987750053405762
          0.12970200181007385 0.44115298986434937 -0.8880100250244141 -0.018238000571727753 -0.3865549862384796 -0.9220860004425049
          0.3073189854621887 0.8572739958763123 -0.41308099031448364 -0.005609000101685524 -0.9094910025596619 -0.4156860113143921
          0.400160014629364 0.8493840098381042 0.3441210091114044 0.10353600233793259 -0.9022300243377686 0.4186420142650604
          0.3191770017147064 0.36410000920295715 0.8749610185623169 0.23004800081253052 -0.32412099838256836 0.9176179766654968
          0.25338301062583923 0.046121999621391296 0.9662659764289856 0.10891299694776535 0.18745599687099457 -0.9762160181999207
          0.20234400033950806 0.5745390057563782 -0.7930709719657898 0.033709000796079636 -0.28041699528694153 -0.9592859745025635
          0.2897869944572449 0.8954309821128845 -0.33797401189804077 0.030135000124573708 -0.8837329745292664 -0.46702098846435547
          0.35179001092910767 0.8818470239639282 0.3139899969100952 0.15476100146770477 -0.8825089931488037 0.4441030025482178
          0.31967198848724365 0.4664750099182129 0.8247489929199219 0.2905519902706146 -0.23433999717235565 0.9277200102806091
          0.30040299892425537 0.1662980020046234 0.9392030239105225 0.05517299845814705 0.2742390036582947 -0.9600780010223389
          0.15492700040340424 0.6456270217895508 -0.7477719783782959 -0.04831999912858009 -0.20526200532913208 -0.9775140285491943
          0.22795499861240387 0.9271280169487 -0.29743799567222595 -0.09777499735355377 -0.871649980545044 -0.48027798533439636
          0.2721709907054901 0.9149450063705444 0.29798999428749084 0.049844998866319656 -0.8706629872322083 0.48934701085090637
          0.29027798771858215 0.5402780175209045 0.7898340225219727 0.2511729896068573 -0.17733199894428253 0.9515600204467773
          0.3009890019893646 0.23891900479793549 0.9232140183448792 -0.41694799065589905 0.3206149935722351 -0.8505060076713562
          -0.21728600561618805 0.7601060271263123 -0.6123930215835571 -0.625889003276825 -0.20792600512504578 -0.7516840100288391
          -0.17750300467014313 0.9703800082206726 -0.16387300193309784 -0.6562209725379944 -0.7154279947280884 -0.23986800014972687
          -0.1898909956216812 0.8904709815979004 0.4135249853134155 -0.47173601388931274 -0.6868759989738464 0.5528709888458252
          -0.10480500012636185 0.4890280067920685 0.8659489750862122 -0.15998399257659912 -0.0721450001001358 0.9844800233840942
          -0.04662699997425079 0.2660430073738098 0.9628329873085022 -0.9848650097846985 0.14818499982357025 0.08990299701690674
          -0.6204749941825867 0.7426390051841736 0.2519879937171936 -0.923999011516571 -0.35479700565338135 0.14263799786567688
          -0.7515590190887451 0.6031209826469421 0.2672150135040283 -0.9388629794120789 -0.2856850028038025 0.19214700162410736
          -0.812608003616333 0.35916000604629517 0.45899099111557007 -0.8997690081596375 -0.21810699999332428 0.3779489994049072
          -0.6755930185317993 0.11522399634122849 0.7282149791717529 -0.7380290031433105 0.030667999759316444 0.6740710139274597
          -0.6526560187339783 0.11877000331878662 0.7482870221138 -0.8558139801025391 -0.049616001546382904 0.5148990154266357
          0.7874019742012024 -0.4940670132637024 -0.3686400055885315 0.47216901183128357 -0.2511810064315796 -0.8449640274047852
          0.6357049942016602 0.28381800651550293 -0.7178630232810974 0.8216999769210815 0.4262230098247528 -0.37834200263023376
          0.8938630223274231 0.42433100938796997 -0.1447480022907257 0.9535260200500488 0.29840201139450073 0.04176799952983856
          0.876899003982544 -0.3924799859523773 0.2775009870529175 0.4236310124397278 -0.8951420187950134 0.13877299427986145
          0.3287830054759979 -0.9436519742012024 -0.03772199898958206 0.32638800144195557 -0.927498996257782 -0.18225200474262238