<?xml version="1.0"?>
<VTKFile type="PolyData" version="0.1" byte_order="LittleEndian" header_type="UInt32" compressor="vtkZLibDataCompressor">
  <PolyData>
    <Piece NumberOfPoints="72" NumberOfVerts="0" NumberOfLines="0" NumberOfStrips="0" NumberOfPolys="80">
      <PointData Normals="Normals">
        <DataArray type="Float32" Name="Normals" NumberOfComponents="3" format="ascii" RangeMin="0.9999995105892378" RangeMax="1.0000006438826405">
          0.1959179937839508 0.9806039929389954 -0.005723999813199043 -0.015503999777138233 0.926118016242981 0.37691599130630493
          -0.21793000400066376 0.5723789930343628 0.7904989719390869 -0.23588299751281738 -0.033038001507520676 0.9712200164794922
          -0.23746100068092346 -0.3219720125198364 0.9164860248565674 -0.10754799842834473 -0.3034990131855011 0.9467430114746094
          0.041875001043081284 -0.5124049782752991 0.8577219843864441 0.07183100283145905 -0.8177629709243774 0.5710560083389282
          0.0962430015206337 -0.9921910166740417 0.07933100312948227 0.5405930280685425 0.8259959816932678 0.15965600311756134
          0.7062519788742065 0.5571449995040894 0.43680399656295776 0.7879930138587952 0.023821000009775162 0.6152240037918091
          0.6138330101966858 -0.43507200479507446 0.6587280035018921 0.6017600297927856 -0.4562940001487732 0.6554999947547913
          0.6581220030784607 -0.4983699917793274 0.5643600225448608 0.47382599115371704 -0.7885739803314209 0.3919700086116791
          0.6340749859809875 0.7732279896736145 -0.008181000128388405 0.8252620100975037 0.557790994644165 0.08838900178670883
          0.9825929999351501 0.09088099747896194 0.16202500462532043 0.9423069953918457 -0.23822200298309326 0.2351759970188141
          0.8916509747505188 -0.38980698585510254 0.23023700714111328 0.8299430012702942 -0.5337880253791809 0.1620669960975647
          0.6518759727478027 -0.7488409876823425 0.11955799907445908 0.6079059839248657 0.7936570048332214 0.023641999810934067
          0.8042889833450317 0.5936859846115112 -0.025622999295592308 0.9830480217933655 0.13743799924850464 -0.12135600298643112
          0.9704959988594055 -0.1465190052986145 -0.19149400293827057 0.9086130261421204 -0.38249099254608154 -0.16770300269126892
          0.8126519918441772 -0.5787429809570312 -0.0682160034775734 0.6688500046730042 -0.7432309985160828 -0.015734000131487846
          0.523838996887207 0.8500289916992188 -0.05517100170254707 0.6799950003623962 0.689041018486023 -0.2506589889526367
          0.8250719904899597 0.16201500594615936 -0.5413010120391846 0.7270709872245789 -0.25251901149749756 -0.6384369730949402
          0.6887540221214294 -0.42019200325012207 -0.5908100008964539 0.6979590058326721 -0.5805429816246033 -0.4193139970302582
          0.5486999750137329 -0.8048030138015747 -0.22631999850273132 0.029103999957442284 0.9826890230178833 -0.18296100199222565
          -0.16778899729251862 0.854902982711792 -0.4909060001373291 -0.2117680013179779 0.20526200532913208 -0.9555220007896423
          -0.058044999837875366 -0.4702860116958618 -0.880603015422821 0.03397100046277046 -0.49101999402046204 -0.8704860210418701
          0.02153100073337555 -0.5546429753303528 -0.8318099975585938 0.053412001579999924 -0.8781729936599731 -0.4753530025482178
          -0.5437710285186768 0.8388599753379822 -0.025026999413967133 -0.9156519770622253 0.3984470069408417 0.05311800166964531
          -0.9972450137138367 0.06929899752140045 -0.02645999938249588 -0.9174200296401978 -0.24961799383163452 -0.3098900020122528
          -0.7684289813041687 -0.2835119962692261 -0.5737059712409973 -0.7248939871788025 -0.42817598581314087 -0.5396239757537842
          -0.45782598853111267 -0.8193179965019226 -0.34512799978256226 -0.7338899970054626 0.6749789714813232 0.07621700316667557
          -0.977308988571167 0.03150000050663948 0.2094610035419464 -0.9718459844589233 -0.048826999962329865 0.23050199449062347
          -0.9884840250015259 0.14419199526309967 0.04591900110244751 -0.9895640015602112 0.03790599852800369 -0.13901999592781067
          -0.9053540229797363 -0.4016839861869812 -0.1377830058336258 -0.6150529980659485 -0.7822759747505188 -0.09876199811697006
          -0.7652140259742737 0.6397500038146973 -0.071881003677845 -0.9775609970092773 -0.08063700050115585 -0.19460700452327728
          -0.9718850255012512 -0.09657000005245209 -0.21473899483680725 -0.9625290036201477 0.26426300406455994 -0.06085199862718582
          -0.9798049926757812 0.13130399584770203 0.15080299973487854 -0.8790180087089539 -0.4210920035839081 0.2236260026693344
          -0.5802029967308044 -0.7898489832878113 0.19875499606132507 -0.6198440194129944 0.7742249965667725 0.1279429942369461
          -0.9896559715270996 0.12883099913597107 0.063120998442173 -0.9955599904060364 -0.07149600237607956 0.06122500076889992
          -0.9328070282936096 0.13549600541591644 0.3339340090751648 -0.7728729844093323 0.03465000167489052 0.6336140036582947
          -0.6071490049362183 -0.4594799876213074 0.64826500415802 -0.3398509919643402 -0.7989869713783264 0.49610498547554016
          <InformationKey name="L2_NORM_RANGE" location="vtkDataArray" length="2">
            <Value index="0">
              0.99999951059
            </Value>
            <Value index="1">
              1.0000006439
            </Value>
          </InformationKey>
        </DataArray>
      </PointData>
      <CellData>
      </CellData>
      <Points>
        <DataArray type="Float32" Name="Points" NumberOfComponents="3" format="ascii" RangeMin="0" RangeMax="0.05291999876499176">
          0 0.05291999876499176 0 0 0.05027399957180023 0.012600000016391277
          0 0.044982001185417175 0.021764000877738 0 0.035280000418424606 0.024708999320864677
          0 0.023814000189304352 0.021436000242829323 0 0.018345000222325325 0.015545999631285667
          0 0.00864300038665533 0.013418000191450119 0 0.0042329998686909676 0.008182000368833542
          0 0 0 0.005481999833136797 0.0491270013153553 0.007546000182628632
          0.01014699973165989 0.04436499997973442 0.013965999707579613 0.012023000046610832 0.03395700082182884 0.016548000276088715
          0.011013000272214413 0.023814000189304352 0.015158000402152538 0.008511999621987343 0.016493000090122223 0.01171599980443716
          0.006924999877810478 0.00873200036585331 0.009530999697744846 0.003990999888628721 0.003969000186771154 0.005495000164955854
          0.005758000072091818 0.04797999933362007 0.0018710000440478325 0.012138999998569489 0.04374700039625168 0.003944000229239464
          0.015406999737024307 0.03263400122523308 0.005005999933928251 0.01525100041180849 0.023814000189304352 0.004954999778419733
          0.012760999612510204 0.01464099995791912 0.004145999904721975 0.009649000130593777 0.008820000104606152 0.0031349998898804188
          0.005135000217705965 0.003705000039190054 0.0016690000193193555 0.005758000072091818 0.04797999933362007 -0.0018710000440478325
          0.012138999998569489 0.04374700039625168 -0.003944000229239464 0.015406999737024307 0.03263400122523308 -0.005005999933928251
          0.01525100041180849 0.023814000189304352 -0.004954999778419733 0.012760999612510204 0.01464099995791912 -0.004145999904721975
          0.009649000130593777 0.008820000104606152 -0.0031349998898804188 0.005135000217705965 0.003705000039190054 -0.0016690000193193555
          0.0038950000889599323 0.04974399879574776 -0.005361999850720167 0.008992999792098999 0.04656900092959404 -0.012377999722957611
          0.012600000016391277 0.03492699936032295 -0.017342999577522278 0.011590000241994858 0.02346000075340271 -0.015953000634908676
          0.009088999591767788 0.016228999942541122 -0.012511000037193298 0.007550999987870455 0.008555999957025051 -0.01039199996739626
          0.004616999998688698 0.00343999988399446 -0.00635500019416213 0 0.05150900036096573 -0.007199999876320362
          0 0.04939199984073639 -0.01783600077033043 0 0.037220001220703125 -0.026673000305891037
          0 0.02310900017619133 -0.023399999365210533 0 0.017815999686717987 -0.01750900037586689
          0 0.008290999568998814 -0.015545999631285667 0 0.0031739999540150166 -0.010308999568223953
          -0.003367000026628375 0.05159600079059601 -0.004633000120520592 -0.006781000178307295 0.04559899866580963 -0.009332999587059021
          -0.008751999586820602 0.035985998809337616 -0.012047000229358673 -0.007934999652206898 0.025225000455975533 -0.01092199981212616
          -0.008464000187814236 0.015170999802649021 -0.011649999767541885 -0.007550999987870455 0.007761000189930201 -0.01039199996739626
          -0.0050490000285208225 0.0030869999900460243 -0.006949999835342169 -0.004046000074595213 0.05168500170111656 -0.0013150000013411045
          -0.004980999976396561 0.04180699959397316 -0.001617999980226159 -0.002956999931484461 0.03475100174546242 -0.0009609999833628535
          -0.00342399999499321 0.027341999113559723 -0.0011119999689981341 -0.010738000273704529 0.012524000369012356 -0.0034890000242739916
          -0.009649000130593777 0.00723200011998415 -0.0031349998898804188 -0.006535999942570925 0.0029990000184625387 -0.002124000107869506
          -0.004046000074595213 0.05168500170111656 0.0013150000013411045 -0.004980999976396561 0.04180699959397316 0.001617999980226159
          -0.002956999931484461 0.03475100174546242 0.0009609999833628535 -0.00342399999499321 0.027341999113559723 0.0011119999689981341
          -0.010738000273704529 0.012524000369012356 0.0034890000242739916 -0.009649000130593777 0.00723200011998415 0.0031349998898804188
          -0.006535999942570925 0.0029990000184625387 0.002124000107869506 -0.004954000003635883 0.050978999584913254 0.006818000227212906
          -0.007934999652206898 0.04339500144124031 0.01092199981212616 -0.008175999857485294 0.03501499816775322 0.011253000237047672
          -0.00735800014808774 0.0255769994109869 0.010127999819815159 -0.00788700021803379 0.015434999950230122 0.010855999775230885
          -0.006924999877810478 0.007937000133097172 0.009530999697744846 -0.004424000158905983 0.003616000059992075 0.006089000031352043
          <InformationKey name="L2_NORM_RANGE" location="vtkDataArray" length="2">
            <Value index="0">
              0
            </Value>
            <Value index="1">
              0.052919998765
            </Value>
          </InformationKey>
        </DataArray>
      </Points>
      <Verts>
        <DataArray type="Int64" Name="connectivity" format="ascii" RangeMin="1e+299" RangeMax="-1e+299">
        </DataArray>
        <DataArray type="Int64" Name="offsets" format="ascii" RangeMin="1e+299" RangeMax="-1e+299">
        </DataArray>
      </Verts>
      <Lines>
        <DataArray type="Int64" Name="connectivity" format="ascii" RangeMin="1e+299" RangeMax="-1e+299">
        </DataArray>
        <DataArray type="Int64" Name="offsets" format="ascii" RangeMin="1e+299" RangeMax="-1e+299">
        </DataArray>
      </Lines>
      <Strips>
        <DataArray type="Int64" Name="connectivity" format="ascii" RangeMin="1e+299" RangeMax="-1e+299">
        </DataArray>
        <DataArray type="Int64" Name="offsets" format="ascii" RangeMin="1e+299" RangeMax="-1e+299">
        </DataArray>
      </Strips>
      <Polys>
        <DataArray type="Int32" Name="connectivity" format="ascii" RangeMin="0" RangeMax="71">
          0 1 9 1 2 10
          9 2 3 11 10 3
          4 12 11 4 5 13
          12 5 6 14 13 6
          7 15 14 7 8 15
          0 9 16 9 10 17
          16 10 11 18 17 11
          12 19 18 12 13 20
          19 13 14 21 20 14
          15 22 21 15 8 22
          0 16 23 16 17 24
          23 17 18 25 24 18
          19 26 25 19 20 27
          26 20 21 28 27 21
          22 29 28 22 8 29
          0 23 30 23 24 31
          30 24 25 32 31 25
          26 33 32 26 27 34
          33 27 28 35 34 28
          29 36 35 29 8 36
          0 30 37 30 31 38
          37 31 32 39 38 32
          33 40 39 33 34 41
          40 34 35 42 41 35
          36 43 42 36 8 43
          0 37 44 37 38 45
          44 38 39 46 45 39
          40 47 46 40 41 48
          47 41 42 49 48 42
          43 50 49 43 8 50
          0 44 51 44 45 52
          51 45 46 53 52 46
          47 54 53 47 48 55
          54 48 49 56 55 49
          50 57 56 50 8 57
          0 51 58 51 52 59
          58 52 53 60 59 53
          54 61 60 54 55 62
          61 55 56 63 62 56
          57 64 63 57 8 64
          0 58 65 58 59 66
          65 59 60 67 66 60
          61 68 67 61 62 69
          68 62 63 70 69 63
          64 71 70 64 8 71
          0 65 1 65 66 2
          1 66 67 3 2 67
          68 4 3 68 69 5
          4 69 70 6 5 70
          71 7 6 71 8 7
        </DataArray>
        <DataArray type="Int32" Name="offsets" format="ascii" RangeMin="3" RangeMax="300">
          3 7 11 15 19 23
          27 30 33 37 41 45
          49 53 57 60 63 67
          71 75 79 83 87 90
          93 97 101 105 109 113
          117 120 123 127 131 135
          139 143 147 150 153 157
          161 165 169 173 177 180
          183 187 191 195 199 203
          207 210 213 217 221 225
          229 233 237 240 243 247
          251 255 259 263 267 270
          273 277 281 285 289 293
          297 300
        </DataArray>
      </Polys>
    </Piece>
  </PolyData>
</VTKFile>
