<?xml version="1.0"?>
<VTKFile type="PolyData" version="0.1" byte_order="LittleEndian" header_type="UInt32" compressor="vtkZLibDataCompressor">
  <PolyData>
    <Piece NumberOfPoints="120" NumberOfVerts="0" NumberOfLines="0" NumberOfStrips="0" NumberOfPolys="236">
      <PointData Normals="Normals">
        <DataArray type="Float32" Name="Normals" NumberOfComponents="3" format="ascii" RangeMin="0.9999992887410085" RangeMax="1.0000006336762297">
          -0.0896959975361824 -0.991703987121582 0.0920720025897026 -0.6787670254707336 -0.7324749827384949 0.05248500034213066
          -0.5115159749984741 -0.7142339944839478 -0.477726012468338 -0.29055100679397583 -0.7756500244140625 -0.5603100061416626
          -0.5781090259552002 -0.7404720187187195 0.3427709937095642 0.1131490021944046 -0.8672199845314026 -0.48489901423454285
          0.13821899890899658 -0.9759020209312439 0.1688539981842041 0.8156470060348511 -0.5737770199775696 0.07416199892759323
          0.8693310022354126 -0.4917289912700653 0.04966700077056885 -0.6887509822845459 -0.6675300002098083 -0.2828870117664337
          -0.6984840035438538 -0.7058069705963135 0.11814200133085251 -0.38326600193977356 -0.46670201420783997 -0.7970550060272217
          -0.5660369992256165 -0.5311269760131836 -0.6304810047149658 0.023879000917077065 -0.38760000467300415 -0.9215180277824402
          0.09850800037384033 -0.7886949777603149 0.6068419814109802 -0.6833069920539856 -0.5855100154876709 0.43619999289512634
          -0.6560810208320618 -0.3327920138835907 0.6773520112037659 -0.34147998690605164 -0.34793099761009216 0.873117983341217
          0.47920799255371094 -0.6171680092811584 -0.6240710020065308 0.9126200079917908 0.40864700078964233 0.01148299966007471
          0.9968870282173157 0.07865499705076218 0.005491999909281731 0.7133340239524841 -0.4767940044403076 0.5136359930038452
          0.9708830118179321 0.011777999810874462 -0.23926399648189545 0.9672719836235046 0.20258300006389618 0.15279099345207214
          -0.562952995300293 -0.6542099714279175 -0.5050680041313171 -0.6554129719734192 -0.7343509793281555 0.17652800679206848
          -0.35792601108551025 -0.23015399277210236 -0.9049410223960876 -0.29045000672340393 0.036761000752449036 -0.9561840295791626
          0.6742969751358032 -0.22844499349594116 -0.702235996723175 -0.035610001534223557 0.0684560015797615 -0.9970179796218872
          0.3208569884300232 0.1266389936208725 -0.9386230111122131 0.7671549916267395 0.40401801466941833 -0.49823999404907227
          0.2117149978876114 -0.018396999686956406 0.9771580100059509 -0.3676699995994568 -0.25312700867652893 0.8948439955711365
          -0.48089900612831116 -0.2431049942970276 0.842399001121521 -0.5305830240249634 0.0882359966635704 0.8430280089378357
          -0.30499300360679626 -0.14111700654029846 0.9418420195579529 -0.4088839888572693 0.02521499991416931 0.9122380018234253
          0.7764790058135986 0.6280030012130737 -0.051885999739170074 0.5699840188026428 0.8193079829216003 -0.06206599995493889
          0.576229989528656 0.8172429800033569 0.008573000319302082 0.8196409940719604 0.5721549987792969 0.028767000883817673
          0.7963669896125793 0.3985460102558136 0.454928994178772 0.8507599830627441 0.03205199912190437 0.5245760083198547
          -0.2915160059928894 -0.6351540088653564 -0.7152600288391113 -0.47307300567626953 -0.8034300208091736 -0.36152899265289307
          -0.1998720020055771 -0.44233399629592896 -0.8742949962615967 -0.6039170026779175 -0.7953050136566162 0.05266699939966202
          -0.5810220241546631 -0.6923009753227234 0.4279400110244751 -0.31543299555778503 -0.39308300614356995 0.8637059926986694
          0.5883169770240784 0.495714008808136 -0.6388670206069946 0.029495999217033386 0.6325610280036926 -0.7739480137825012
          -0.03043700009584427 0.8124290108680725 -0.5822650194168091 0.4195219874382019 0.723239004611969 -0.5485680103302002
          0.2248769998550415 0.3231779932975769 0.9192309975624084 -0.09849999845027924 0.3343049883842468 0.9373040199279785
          0.23361000418663025 0.4117569923400879 0.8808419704437256 -0.22437599301338196 0.6211580038070679 0.7508779764175415
          0.12011100351810455 0.8018500208854675 0.585328996181488 -0.15650799870491028 0.32526299357414246 0.9325820207595825
          0.053098998963832855 0.4718270003795624 0.8800910115242004 0.581991970539093 0.6787559986114502 0.44785600900650024
          0.2944850027561188 0.9052680134773254 0.3062179982662201 0.4112130105495453 0.9110580086708069 0.029608000069856644
          -0.020565999671816826 -0.5619199872016907 -0.8269360065460205 0.21731600165367126 -0.19489699602127075 -0.9564459919929504
          0.09661900252103806 -0.5470790266990662 -0.8314859867095947 -0.3788590133190155 -0.6881020069122314 -0.6188549995422363
          -0.6355739831924438 -0.7270129919052124 -0.2598020136356354 -0.6706579923629761 -0.7189300060272217 0.18264099955558777
          -0.6288809776306152 -0.48669299483299255 0.6063330173492432 -0.26289600133895874 -0.23284299671649933 0.9363059997558594
          0.1281830072402954 0.027408000081777573 0.9913719892501831 0.5361610054969788 0.5185850262641907 0.6660330295562744
          0.26127099990844727 0.9291480183601379 -0.26157599687576294 0.8250399827957153 0.5605840086936951 0.07109100371599197
          0.7355020046234131 0.39244601130485535 -0.5522890090942383 0.6062250137329102 -0.10441099852323532 -0.7884089946746826
          0.47670701146125793 -0.04537000134587288 -0.8778910040855408 -0.13970300555229187 -0.3965759873390198 -0.9073100090026855
          0.3917990028858185 -0.10831700265407562 -0.9136530160903931 -0.8693320155143738 0.31703299283981323 -0.379146009683609
          -0.9106929898262024 -0.37003400921821594 -0.18361400067806244 -0.6825379729270935 0.6638799905776978 -0.30562201142311096
          -0.6666470170021057 0.743332028388977 -0.05512600019574165 -0.9248579740524292 0.10229700058698654 0.36629700660705566
          -0.8239240050315857 0.4777640104293823 0.3047800064086914 -0.7358459830284119 0.40882399678230286 0.539808988571167
          0.020563000813126564 0.22631099820137024 0.9738379716873169 0.6334440112113953 0.4271720051765442 0.64519202709198
          0.31388598680496216 0.45644599199295044 0.8325459957122803 0.6770280003547668 0.6549190282821655 0.33573099970817566
          0.7133439779281616 0.6700860261917114 -0.2052450031042099 0.8773279786109924 0.3564079999923706 -0.3213540017604828
          0.7131779789924622 0.25275400280952454 -0.6538289785385132 -0.3705030083656311 0.13515399396419525 -0.9189450144767761
          0.006541999988257885 0.17254899442195892 -0.984978973865509 0.20324400067329407 0.3602040112018585 -0.9104639887809753
          -0.6002209782600403 0.5841240286827087 -0.5463830232620239 -0.8600450158119202 0.5098919868469238 -0.01824299991130829
          -0.8827729821205139 0.41491299867630005 -0.22035899758338928 -0.9562349915504456 0.27416500449180603 -0.10221599787473679
          -0.47077399492263794 0.8813049793243408 -0.04091000184416771 -0.7118949890136719 0.6935920119285583 -0.11016099900007248
          -0.4607290029525757 0.8768079876899719 -0.13761399686336517 -0.3984360098838806 0.8998110294342041 -0.17773300409317017
          -0.44056200981140137 0.7062640190124512 0.5541629791259766 -0.7954379916191101 0.5553479790687561 -0.24262399971485138
          -0.20609299838542938 0.875 0.4380649924278259 -0.7956560254096985 0.60521399974823 0.025436999276280403
          -0.6339920163154602 0.7326890230178833 -0.2474289983510971 0.4633220136165619 0.6144359707832336 -0.6385930180549622
          -0.5830510258674622 0.7592620253562927 -0.28909000754356384 -0.07246900349855423 0.9032710194587708 -0.4229069948196411
          -0.3395949900150299 0.6922029852867126 -0.6368119716644287 -0.9445319771766663 0.012439999729394913 -0.32818400859832764
          -0.8090710043907166 0.5591710209846497 -0.18091699481010437 -0.9747440218925476 0.017859000712633133 -0.22261099517345428
          -0.9137899875640869 0.3798989951610565 -0.1437550038099289 -0.8142309784889221 0.5657920241355896 -0.13002799451351166
          <InformationKey name="L2_NORM_RANGE" location="vtkDataArray" length="2">
            <Value index="0">
              0.99999928874
            </Value>
            <Value index="1">
              1.0000006337
            </Value>
          </InformationKey>
        </DataArray>
      </PointData>
      <CellData>
      </CellData>
      <Points>
        <DataArray type="Float32" Name="Points" NumberOfComponents="3" format="ascii" RangeMin="0.12545874273126492" RangeMax="0.14617983307359647">
          0.03338399901986122 -0.13343000411987305 0.046929001808166504 0.03090599924325943 -0.13172399997711182 0.04671899974346161
          0.031546998769044876 -0.13224999606609344 0.04577400162816048 0.033132001757621765 -0.13320299983024597 0.045935001224279404
          0.03255600109696388 -0.13231800496578217 0.05107000097632408 0.03370099887251854 -0.13329699635505676 0.045882001519203186
          0.03328999876976013 -0.13300199806690216 0.04884900152683258 0.03472999855875969 -0.13203799724578857 0.048507001250982285
          0.03502799943089485 -0.1326889991760254 0.046250998973846436 0.02998499944806099 -0.13061100244522095 0.04560299962759018
          0.029922999441623688 -0.1305440068244934 0.047012001276016235 0.030553000047802925 -0.13021500408649445 0.04468800127506256
          0.030091000720858574 -0.1302109956741333 0.045145001262426376 0.03434300050139427 -0.13079899549484253 0.04442499950528145
          0.033590998500585556 -0.1326799988746643 0.051343999803066254 0.029788000509142876 -0.1297069936990738 0.049626000225543976
          0.030513999983668327 -0.13006900250911713 0.050693999975919724 0.03312300145626068 -0.1319960057735443 0.05164499953389168
          0.03466099873185158 -0.13273100554943085 0.045510001480579376 0.03460000082850456 -0.13047200441360474 0.04818800091743469
          0.03513700142502785 -0.13091400265693665 0.04988599941134453 0.03447800129652023 -0.13206300139427185 0.0515500009059906
          0.03521899878978729 -0.13133099675178528 0.04549200087785721 0.034999001771211624 -0.13056699931621552 0.04667399823665619
          0.028351999819278717 -0.12858200073242188 0.04532099887728691 0.02615099959075451 -0.12734299898147583 0.04806499928236008
          0.029851000756025314 -0.1292870044708252 0.04469799995422363 0.030905000865459442 -0.12926100194454193 0.0442270003259182
          0.034821998327970505 -0.13187900185585022 0.044982001185417175 0.03201200067996979 -0.12936100363731384 0.04400499910116196
          0.033341001719236374 -0.1299149990081787 0.044109001755714417 0.034683000296354294 -0.13022500276565552 0.0449099987745285
          0.034338001161813736 -0.13066299259662628 0.051906999200582504 0.02658900059759617 -0.12648600339889526 0.049550000578165054
          0.029500000178813934 -0.12879200279712677 0.05021199956536293 0.03036399930715561 -0.12892700731754303 0.050811998546123505
          0.031311001628637314 -0.13039599359035492 0.051128000020980835 0.031156999990344048 -0.12939199805259705 0.051284000277519226
          0.03449799865484238 -0.12955200672149658 0.04962800070643425 0.03319400176405907 -0.12894099950790405 0.047807998955249786
          0.03348800167441368 -0.1289830058813095 0.04608599841594696 0.03478199988603592 -0.13006499409675598 0.046386998146772385
          0.034630000591278076 -0.1302179992198944 0.05147299915552139 0.03483099862933159 -0.1309020072221756 0.051545001566410065
          0.026190999895334244 -0.1261020004749298 0.043914999812841415 0.02380100078880787 -0.12485100328922272 0.044248998165130615
          0.02861800044775009 -0.12826499342918396 0.04472300037741661 0.02245499938726425 -0.12413299828767776 0.04760799929499626
          0.021730000153183937 -0.1233230009675026 0.0482029989361763 0.020694000646471977 -0.12141100317239761 0.04929099977016449
          0.029354000464081764 -0.12757599353790283 0.04460899904370308 0.030401000753045082 -0.12848000228405 0.04492799937725067
          0.03140399977564812 -0.12838399410247803 0.04459900036454201 0.033309999853372574 -0.1290999948978424 0.04436599835753441
          0.03377600014209747 -0.12963899970054626 0.051819998770952225 0.02928999997675419 -0.12796400487422943 0.0500200018286705
          0.028821999207139015 -0.12700000405311584 0.04969999939203262 0.031091999262571335 -0.12806500494480133 0.05075100064277649
          0.029791999608278275 -0.1277099996805191 0.049828000366687775 0.03172500059008598 -0.12880800664424896 0.05139400064945221
          0.03269600123167038 -0.12893900275230408 0.05158200114965439 0.03427699953317642 -0.12954699993133545 0.05137699842453003
          0.032701000571250916 -0.12846200168132782 0.05103899911046028 0.029923999682068825 -0.12744799256324768 0.04874499887228012
          0.02443999983370304 -0.12432499974966049 0.04289500042796135 0.027767999097704887 -0.12654699385166168 0.04409100115299225
          0.020997000858187675 -0.12091100215911865 0.040010999888181686 0.020002000033855438 -0.12133999913930893 0.04056699946522713
          0.01799900084733963 -0.12075100094079971 0.04226300120353699 0.017660999670624733 -0.12101999670267105 0.04619999974966049
          0.01800299994647503 -0.11976700276136398 0.04882099851965904 0.019077999517321587 -0.11946699768304825 0.0496940016746521
          0.02205199934542179 -0.1209620013833046 0.049501001834869385 0.02321700006723404 -0.12167699635028839 0.04945100098848343
          0.030527999624609947 -0.12804600596427917 0.04604800045490265 0.02374899946153164 -0.12117800116539001 0.04472300037741661
          0.02544499933719635 -0.12335000187158585 0.04346099868416786 0.02270900085568428 -0.12127099931240082 0.04105300083756447
          0.025141999125480652 -0.12396200001239777 0.0428679995238781 0.02021300047636032 -0.11999399960041046 0.03951599821448326
          0.021345000714063644 -0.11931700259447098 0.0395830012857914 0.01844000071287155 -0.11994100362062454 0.0406700000166893
          0.016517000272870064 -0.11980099976062775 0.04438500106334686 0.01732500083744526 -0.11999800056219101 0.04256699979305267
          0.016457999125123024 -0.1193929985165596 0.046473998576402664 0.01665700040757656 -0.11938600242137909 0.0471160002052784
          0.017253000289201736 -0.11904100328683853 0.048200998455286026 0.018130000680685043 -0.11833299696445465 0.04943099990487099
          0.019740000367164612 -0.11877100169658661 0.04977099969983101 0.022064000368118286 -0.12021099776029587 0.049293000251054764
          0.020539000630378723 -0.11797399818897247 0.04928699880838394 0.021276000887155533 -0.11762899905443192 0.04834200069308281
          0.021669000387191772 -0.11721999943256378 0.04151900112628937 0.02349499985575676 -0.12082699686288834 0.042093999683856964
          0.02209700085222721 -0.11894799768924713 0.040146999061107635 0.019631000235676765 -0.11898300051689148 0.03936399891972542
          0.020476000383496284 -0.1192609965801239 0.03936399891972542 0.020729999989271164 -0.11855900287628174 0.0395050011575222
          0.019863000139594078 -0.11818400025367737 0.03992699831724167 0.020261000841856003 -0.11725600063800812 0.041228998452425
          0.019951000809669495 -0.11803799867630005 0.04426199942827225 0.02027899958193302 -0.11772999912500381 0.04334300011396408
          0.01873300038278103 -0.11917900294065475 0.04451800137758255 0.019406000152230263 -0.11879999935626984 0.04424799978733063
          0.01858299970626831 -0.11932799965143204 0.04534199833869934 0.018056999891996384 -0.11892499774694443 0.047231998294591904
          0.01851700060069561 -0.11742199957370758 0.0490569993853569 0.01942799985408783 -0.11814100295305252 0.04651099815964699
          0.019499000161886215 -0.11686000227928162 0.048670001327991486 0.019664999097585678 -0.11629600077867508 0.047603998333215714
          0.020245999097824097 -0.11615800112485886 0.04315200075507164 0.021376999095082283 -0.11795199662446976 0.04013799875974655
          0.020539000630378723 -0.11647800356149673 0.041843999177217484 0.02052599936723709 -0.11699499934911728 0.04086799919605255
          0.020225999876856804 -0.11721699684858322 0.04036499932408333 0.020109999924898148 -0.11760099977254868 0.04397900030016899
          0.01949699968099594 -0.11836200207471848 0.044610001146793365 0.01988000050187111 -0.11712200194597244 0.044488999992609024
          0.019860999658703804 -0.1180189996957779 0.0449099987745285 0.019308999180793762 -0.11883799731731415 0.044923000037670135
          <InformationKey name="L2_NORM_RANGE" location="vtkDataArray" length="2">
            <Value index="0">
              0.12545874273
            </Value>
            <Value index="1">
              0.14617983307
            </Value>
          </InformationKey>
        </DataArray>
      </Points>
      <Verts>
        <DataArray type="Int64" Name="connectivity" format="ascii" RangeMin="1e+299" RangeMax="-1e+299">
        </DataArray>
        <DataArray type="Int64" Name="offsets" format="ascii" RangeMin="1e+299" RangeMax="-1e+299">
        </DataArray>
      </Verts>
      <Lines>
        <DataArray type="Int64" Name="connectivity" format="ascii" RangeMin="1e+299" RangeMax="-1e+299">
        </DataArray>
        <DataArray type="Int64" Name="offsets" format="ascii" RangeMin="1e+299" RangeMax="-1e+299">
        </DataArray>
      </Lines>
      <Strips>
        <DataArray type="Int64" Name="connectivity" format="ascii" RangeMin="1e+299" RangeMax="-1e+299">
        </DataArray>
        <DataArray type="Int64" Name="offsets" format="ascii" RangeMin="1e+299" RangeMax="-1e+299">
        </DataArray>
      </Strips>
      <Polys>
        <DataArray type="Int32" Name="connectivity" format="ascii" RangeMin="0" RangeMax="119">
          0 1 2 2 3 0
          4 1 0 3 5 0
          4 0 6 0 7 6
          0 8 7 0 5 8
          1 9 2 10 1 4
          1 10 9 11 2 12
          3 2 13 13 2 11
          12 2 9 13 5 3
          6 14 4 4 15 10
          15 4 16 16 4 17
          4 14 17 13 18 5
          5 18 8 14 6 7
          19 7 8 19 20 7
          21 7 20 21 14 7
          8 18 22 23 8 22
          19 8 23 24 12 9
          9 10 25 25 24 9
          10 15 25 12 26 11
          27 11 26 13 11 27
          26 12 24 13 28 18
          13 29 30 13 27 29
          30 31 13 28 13 31
          21 32 14 14 32 17
          33 25 15 15 34 33
          15 16 35 35 34 15
          16 36 37 35 16 37
          16 17 36 17 32 36
          18 28 22 19 38 20
          39 38 19 40 19 41
          40 39 19 19 23 41
          20 42 43 38 42 20
          21 20 43 32 21 43
          28 31 22 41 22 31
          22 41 23 44 24 45
          24 25 45 24 46 26
          24 44 46 47 45 25
          47 25 48 49 25 33
          49 48 25 26 50 51
          50 26 46 26 51 27
          29 27 52 52 27 51
          53 30 29 52 53 29
          53 31 30 31 40 41
          40 31 53 54 36 32
          32 42 54 42 32 43
          34 55 33 33 56 49
          55 56 33 34 35 55
          35 37 57 35 57 58
          55 35 58 59 37 36
          59 36 60 60 36 54
          59 57 37 61 42 38
          38 62 61 38 39 62
          63 39 40 62 39 63
          63 40 53 42 61 54
          44 45 64 65 46 44
          64 65 44 66 45 67
          64 45 66 68 67 45
          68 45 47 46 65 50
          47 48 69 47 69 68
          69 48 70 70 48 49
          71 70 49 72 71 49
          73 72 49 49 56 73
          50 74 51 75 73 50
          50 73 63 63 74 50
          76 75 50 50 65 76
          74 52 51 53 52 63
          52 74 63 61 60 54
          55 58 56 63 73 56
          63 56 58 59 62 57
          62 58 57 58 62 63
          59 60 62 60 61 62
          77 64 66 64 77 78
          64 78 65 65 78 76
          79 66 67 80 66 79
          80 77 66 67 68 81
          79 67 81 82 68 69
          82 83 68 81 68 83
          84 82 69 69 70 85
          84 69 85 86 70 87
          70 86 85 70 71 87
          88 87 71 88 71 72
          72 73 89 89 90 72
          90 88 72 75 89 73
          91 89 75 91 75 92
          76 93 75 75 93 92
          76 78 77 77 93 76
          93 77 94 94 77 80
          95 79 81 79 95 96
          96 80 79 97 80 96
          94 80 97 98 81 99
          100 101 81 95 81 98
          81 83 102 99 81 101
          103 81 102 81 103 100
          84 83 82 84 104 83
          83 104 102 85 105 84
          84 105 104 85 86 105
          86 87 105 106 87 88
          87 107 105 87 106 107
          88 90 106 90 89 91
          90 91 108 106 90 108
          109 108 91 91 110 109
          92 110 91 94 111 92
          110 92 112 92 93 94
          113 92 111 92 113 112
          111 94 97 98 96 95
          98 114 96 114 97 96
          114 111 97 114 98 99
          99 101 112 113 99 112
          99 113 114 100 115 101
          116 100 103 100 117 115
          117 100 118 116 118 100
          101 110 112 110 101 115
          103 102 104 104 119 103
          116 103 119 104 105 107
          119 104 107 107 106 108
          107 108 109 118 107 109
          116 119 107 116 107 118
          117 109 110 118 109 117
          117 110 115 111 114 113
        </DataArray>
        <DataArray type="Int32" Name="offsets" format="ascii" RangeMin="3" RangeMax="708">
          3 6 9 12 15 18
          21 24 27 30 33 36
          39 42 45 48 51 54
          57 60 63 66 69 72
          75 78 81 84 87 90
          93 96 99 102 105 108
          111 114 117 120 123 126
          129 132 135 138 141 144
          147 150 153 156 159 162
          165 168 171 174 177 180
          183 186 189 192 195 198
          201 204 207 210 213 216
          219 222 225 228 231 234
          237 240 243 246 249 252
          255 258 261 264 267 270
          273 276 279 282 285 288
          291 294 297 300 303 306
          309 312 315 318 321 324
          327 330 333 336 339 342
          345 348 351 354 357 360
          363 366 369 372 375 378
          381 384 387 390 393 396
          399 402 405 408 411 414
          417 420 423 426 429 432
          435 438 441 444 447 450
          453 456 459 462 465 468
          471 474 477 480 483 486
          489 492 495 498 501 504
          507 510 513 516 519 522
          525 528 531 534 537 540
          543 546 549 552 555 558
          561 564 567 570 573 576
          579 582 585 588 591 594
          597 600 603 606 609 612
          615 618 621 624 627 630
          633 636 639 642 645 648
          651 654 657 660 663 666
          669 672 675 678 681 684
          687 690 693 696 699 702
          705 708
        </DataArray>
      </Polys>
    </Piece>
  </PolyData>
</VTKFile>
