<?xml version="1.0"?>
<VTKFile type="PolyData" version="0.1" byte_order="LittleEndian" header_type="UInt32" compressor="vtkZLibDataCompressor">
  <PolyData>
    <Piece NumberOfPoints="159" NumberOfVerts="0" NumberOfLines="0" NumberOfStrips="0" NumberOfPolys="316">
      <PointData Normals="Normals">
        <DataArray type="Float32" Name="Normals" NumberOfComponents="3" format="ascii" RangeMin="0.999999384240891" RangeMax="1.0000006373626709">
          -0.13758400082588196 -0.6802600026130676 -0.7199419736862183 -0.33236798644065857 -0.8319039940834045 -0.4443739950656891
          -0.26002800464630127 -0.43853500485420227 -0.8602749705314636 0.25440099835395813 -0.08877100050449371 -0.9630159735679626
          -0.023686999455094337 -0.9276800155639648 -0.3726249933242798 0.571308970451355 -0.2091509997844696 -0.7936379909515381
          -0.2220660001039505 -0.47562000155448914 -0.8511589765548706 -0.18403099477291107 -0.8074039816856384 -0.5605639815330505
          -0.2780640125274658 -0.9596409797668457 -0.042073000222444534 0.0050039999186992645 -0.9872660040855408 -0.15899699926376343
          0.15790000557899475 0.20165300369262695 -0.9666460156440735 -0.13162200152873993 0.14720800518989563 -0.980309009552002
          0.6418859958648682 0.6356469988822937 -0.42887601256370544 0.9775180220603943 -0.03525499999523163 -0.20788300037384033
          0.7281879782676697 -0.6848180294036865 0.027692999690771103 0.8691290020942688 0.4682439863681793 -0.15925300121307373
          -0.06906899809837341 -0.34019699692726135 -0.9378139972686768 -0.09695799648761749 0.3639200031757355 -0.9263700246810913
          0.04395100101828575 -0.5684999823570251 -0.8215090036392212 -0.03114599920809269 -0.5906599760055542 -0.806318998336792
          -0.1018109992146492 -0.8596360087394714 -0.5006600022315979 -0.3657509982585907 -0.9292730093002319 0.051750000566244125
          -0.22243699431419373 -0.9470760226249695 -0.23145100474357605 0.11331599950790405 -0.9934239983558655 0.01640399917960167
          -0.33948400616645813 -0.7934769988059998 0.5051190257072449 -0.2896369993686676 -0.6696990132331848 0.6838229894638062
          -0.12857800722122192 -0.874206006526947 0.4682219922542572 0.8946409821510315 -0.40390199422836304 0.19099700450897217
          0.32082098722457886 0.7462859749794006 -0.5832080245018005 0.0634550005197525 0.964792013168335 -0.25524500012397766
          0.5192430019378662 0.7927749752998352 0.3192090094089508 0.7657909989356995 0.6310020089149475 0.12409699708223343
          0.9312779903411865 0.33344200253486633 0.14675800502300262 0.213235005736351 -0.008263999596238136 -0.9769660234451294
          0.08381500095129013 0.6498119831085205 -0.7554600238800049 -0.042753998190164566 0.9765790104866028 -0.21086999773979187
          0.14985699951648712 -0.7927489876747131 -0.5908399820327759 0.3654809892177582 -0.2282000035047531 -0.9024119973182678
          0.430512011051178 0.00021600000036414713 -0.9025850296020508 -0.2643429934978485 -0.9534199833869934 0.14530600607395172
          -0.2699880003929138 -0.7557889819145203 0.5965650081634521 -0.23848900198936462 -0.932204008102417 -0.27224600315093994
          0.6249480247497559 -0.546438992023468 0.5575339794158936 -0.4022440016269684 -0.5924320220947266 0.6980140209197998
          -0.24677899479866028 -0.5254660248756409 0.8142390251159668 0.3301219940185547 -0.2144390046596527 0.9192579984664917
          0.2587890028953552 -0.02797600068151951 0.9655290246009827 0.0010339999571442604 0.004832000005990267 0.9999880194664001
          -0.3474690020084381 -0.2777029871940613 0.8956260085105896 0.7945359945297241 0.44358399510383606 0.4146629869937897
          0.9058840274810791 0.3438029885292053 0.24733300507068634 0.22524699568748474 0.9656820297241211 0.12931400537490845
          0.07878900319337845 0.9943779706954956 0.07074499875307083 0.4056920111179352 0.48198801279067993 0.7765960097312927
          0.24323099851608276 0.6554840207099915 0.7149680256843567 0.09383899718523026 0.9913359880447388 -0.09190800040960312
          0.29325300455093384 0.9553710222244263 0.03562600165605545 0.47574201226234436 0.7146400213241577 -0.5127959847450256
          0.641772985458374 0.5405510067939758 -0.5439959764480591 0.34523698687553406 0.9351279735565186 0.07967299968004227
          0.521943986415863 -0.37505999207496643 -0.7660970091819763 -0.18599599599838257 -0.6738219857215881 -0.7151010036468506
          0.44524499773979187 -0.5044980049133301 -0.7397559881210327 0.7144569754600525 0.5201560258865356 -0.46796301007270813
          0.6671749949455261 0.20483499765396118 -0.7161849737167358 -0.13724100589752197 -0.8373919725418091 0.529092013835907
          -0.08615999668836594 -0.8468090295791626 0.5248730182647705 -0.6518930196762085 -0.730758011341095 0.20255200564861298
          0.04462600126862526 -0.1994519978761673 0.9788910150527954 -0.005187999922782183 -0.5409759879112244 0.8410220146179199
          -0.911391019821167 0.12367700040340424 -0.39251700043678284 -0.8634030222892761 0.09184999763965607 -0.49608299136161804
          -0.9203780293464661 -0.041218001395463943 -0.38885200023651123 -0.9345020055770874 0.32903701066970825 -0.13579599559307098
          -0.32123100757598877 0.19670599699020386 0.9263460040092468 -0.5011109709739685 -0.3042300045490265 0.810142993927002
          -0.1450349986553192 0.03203099966049194 0.9889079928398132 -0.27720001339912415 0.42746999859809875 0.8604819774627686
          0.1145860031247139 0.9918910264968872 -0.05497400090098381 -0.02405400015413761 0.9955970048904419 0.09059999883174896
          0.6181830167770386 0.7860299944877625 -0.00241199997253716 0.2148749977350235 0.963513970375061 0.15959100425243378
          0.5041519999504089 0.8058599829673767 0.31051701307296753 0.48882800340652466 0.735306978225708 0.46943700313568115
          0.612142026424408 -0.07531200349330902 -0.7871530055999756 -0.13426600396633148 -0.20542599260807037 -0.969419002532959
          -0.7098580002784729 0.18934999406337738 -0.6784160137176514 0.11305099725723267 0.019739000126719475 -0.9933930039405823
          0.41086599230766296 0.7417479753494263 -0.5300930142402649 0.41620001196861267 0.9086260199546814 -0.034297000616788864
          0.5343130230903625 0.8141369819641113 -0.22735600173473358 0.28116700053215027 0.5499669909477234 -0.7864360213279724
          0.13956700265407562 -0.6906039714813232 0.7096390128135681 -0.7709580063819885 -0.2033510059118271 0.6035500168800354
          -0.8965319991111755 0.11021699756383896 0.42904800176620483 -0.6216359734535217 0.7811909914016724 -0.05752300098538399
          0.2986440062522888 -0.2935670018196106 0.9080910086631775 0.5228739976882935 0.10019800066947937 0.8464999794960022
          0.5902919769287109 0.39299100637435913 0.705062985420227 0.13199399411678314 0.3376289904117584 0.9319790005683899
          -0.6230739951133728 0.779075026512146 -0.06943599879741669 -0.9518160223960876 0.27097800374031067 -0.14358800649642944
          -0.9322460293769836 0.358458012342453 -0.049244001507759094 -0.9834529757499695 0.17925800383090973 -0.026201000437140465
          0.01983099989593029 0.9786459803581238 0.20459400117397308 0.0181450005620718 0.7673370242118835 0.6409879922866821
          0.6431649923324585 0.6714379787445068 0.3681179881095886 0.37064599990844727 0.6825460195541382 0.6298829913139343
          0.20624999701976776 0.21761199831962585 -0.9539949893951416 -0.6494929790496826 0.2699579894542694 -0.7108309864997864
          -0.7440339922904968 0.27796998620033264 -0.607574999332428 -0.2867110073566437 0.7702239751815796 -0.569694995880127
          -0.1319890022277832 0.9253219962120056 -0.3554689884185791 0.12344300001859665 0.973908007144928 0.19043199717998505
          -0.041978999972343445 0.9956089854240417 0.08366800099611282 -0.2456829994916916 0.9683240056037903 0.04460399970412254
          0.26117101311683655 0.913640022277832 0.3115310072898865 -0.1216529980301857 0.978531002998352 -0.16636399924755096
          0.13880600035190582 -0.5951709747314453 0.7915199995040894 0.4993570148944855 -0.5111349821090698 0.6995589733123779
          -0.5254539847373962 -0.1231279969215393 0.8418650031089783 -0.8425419926643372 0.5367029905319214 -0.045531000941991806
          -0.8522049784660339 0.5067819952964783 -0.13007299602031708 -0.8317109942436218 0.42040500044822693 0.3626520037651062
          -0.7973020076751709 0.5884119868278503 -0.13446499407291412 0.5442910194396973 -0.13131499290466309 0.8285549879074097
          0.5669530034065247 0.2724060118198395 0.7774050235748291 -0.8964759707450867 0.4411090016365051 0.04187899827957153
          -0.9941340088844299 -0.01779700070619583 0.10668300092220306 -0.9896789789199829 -0.09496200084686279 -0.10731799900531769
          -0.9908980131149292 0.016966000199317932 -0.133542999625206 -0.9678999781608582 0.2506380081176758 0.018688999116420746
          -0.9954749941825867 -0.09203500300645828 0.023638999089598656 0.25728800892829895 0.6056119799613953 0.7530189752578735
          -0.8120589852333069 0.49243199825286865 -0.31316399574279785 -0.9820299744606018 0.15403999388217926 -0.10903999954462051
          -0.9202970266342163 0.29754599928855896 -0.2540079951286316 -0.3160650134086609 0.9164220094680786 0.24550600349903107
          0.20776799321174622 0.8586999773979187 0.4684720039367676 0.02553199976682663 0.8792110085487366 0.4757489860057831
          -0.9840850234031677 0.1776379942893982 -0.004588000010699034 -0.9978340268135071 0.06355399638414383 -0.016995999962091446
          -0.7287769913673401 0.6750990152359009 0.1145709976553917 0.5479339957237244 -0.36890101432800293 0.7507860064506531
          0.3412269949913025 -0.36417800188064575 0.8665670156478882 -0.04072999954223633 0.06997600197792053 0.9967169761657715
          -0.9419119954109192 0.18215499818325043 -0.2821730077266693 -0.8455759882926941 0.43790000677108765 -0.30535998940467834
          -0.9005780220031738 0.41577601432800293 -0.12684500217437744 -0.9547979831695557 0.27706700563430786 -0.10767900198698044
          -0.46992799639701843 0.6362389922142029 0.6118559837341309 -0.9639000296592712 0.264831006526947 0.02758600004017353
          -0.9598590135574341 0.2709909975528717 0.07234399765729904 0.4340989887714386 0.03794899955391884 0.900065004825592
          -0.9979640245437622 0.04659999907016754 0.043556999415159225 -0.9446719884872437 0.3109860122203827 0.1043189987540245
          -0.9207680225372314 -0.344539999961853 -0.18297100067138672 -0.9574289917945862 -0.2661930024623871 0.11167799681425095
          -0.9988089799880981 -0.033925000578165054 0.035061001777648926
          <InformationKey name="L2_NORM_RANGE" location="vtkDataArray" length="2">
            <Value index="0">
              0.99999938424
            </Value>
            <Value index="1">
              1.0000006374
            </Value>
          </InformationKey>
        </DataArray>
      </PointData>
      <CellData>
      </CellData>
      <Points>
        <DataArray type="Float32" Name="Points" NumberOfComponents="3" format="ascii" RangeMin="0.14245497103130952" RangeMax="0.15490250647190956">
          0.047331999987363815 -0.13746100664138794 0.04759100079536438 0.046574000269174576 -0.1374099999666214 0.04825599864125252
          0.04547800123691559 -0.13599500060081482 0.04709099978208542 0.04773600026965141 -0.13651099801063538 0.04715700075030327
          0.04777799919247627 -0.1380070000886917 0.04826800152659416 0.04883800074458122 -0.1373859941959381 0.047818999737501144
          0.04498999938368797 -0.13583800196647644 0.0472479984164238 0.04188999906182289 -0.13610899448394775 0.048179998993873596
          0.04430000111460686 -0.13753299415111542 0.04951599985361099 0.047843001782894135 -0.13810600340366364 0.0496629998087883
          0.04631499946117401 -0.13558900356292725 0.04695500060915947 0.045106999576091766 -0.13524200022220612 0.0470689982175827
          0.0481950007379055 -0.13629500567913055 0.04758799821138382 0.04912799969315529 -0.1376429945230484 0.04819900169968605
          0.04918200150132179 -0.13783599436283112 0.04906899854540825 0.04882200062274933 -0.13685500621795654 0.048245999962091446
          0.042775001376867294 -0.1353680044412613 0.04726799950003624 0.044082000851631165 -0.13510799407958984 0.04717300087213516
          0.03935899958014488 -0.13425399363040924 0.04654800146818161 0.04207000136375427 -0.13547199964523315 0.047419000416994095
          0.03855200111865997 -0.1347229927778244 0.047148000448942184 0.038718998432159424 -0.13535800576210022 0.04918200150132179
          0.0377889983355999 -0.1347150057554245 0.04752200096845627 0.04782000184059143 -0.13832299411296844 0.05042500048875809
          0.04274599999189377 -0.13668599724769592 0.0502920001745224 0.04506099969148636 -0.1366419941186905 0.05200999975204468
          0.04727799817919731 -0.13813799619674683 0.05097400024533272 0.0488630011677742 -0.13783100247383118 0.050144001841545105
          0.04602300003170967 -0.1348229944705963 0.04721200093626976 0.04521999880671501 -0.13449199497699738 0.047529999166727066
          0.04741299897432327 -0.1361909955739975 0.05150799825787544 0.04857100173830986 -0.13654999434947968 0.048597998917102814
          0.04889800027012825 -0.1373250037431717 0.049803998321294785 0.041832998394966125 -0.13501699268817902 0.047221001237630844
          0.04308300092816353 -0.1349470019340515 0.047297000885009766 0.04414999857544899 -0.13466599583625793 0.04785099998116493
          0.0373850017786026 -0.13435900211334229 0.04649500176310539 0.039413001388311386 -0.13328100740909576 0.046108998358249664
          0.04052799940109253 -0.1339160054922104 0.04655800014734268 0.03683200106024742 -0.1344909965991974 0.049727000296115875
          0.0395749993622303 -0.13506799936294556 0.050728000700473785 0.03558000177145004 -0.13415199518203735 0.04575899988412857
          0.048631999641656876 -0.13780799508094788 0.051368001848459244 0.042796000838279724 -0.13548900187015533 0.051437001675367355
          0.04108700156211853 -0.1354680061340332 0.05100199952721596 0.048257000744342804 -0.13759300112724304 0.051656000316143036
          0.04661500081419945 -0.1366029977798462 0.05225599929690361 0.045402999967336655 -0.13594800233840942 0.05242300033569336
          0.043234001845121384 -0.1352979987859726 0.052046999335289 0.04832400009036064 -0.13699699938297272 0.051284998655319214
          0.048760998994112015 -0.13722799718379974 0.05033399909734726 0.04548899829387665 -0.13497400283813477 0.04958900064229965
          0.04471899941563606 -0.1349249929189682 0.049545999616384506 0.04634099826216698 -0.1358260065317154 0.05211900174617767
          0.04484499990940094 -0.13499200344085693 0.05214700102806091 0.04471300169825554 -0.13485099375247955 0.050301000475883484
          0.04416799917817116 -0.1345670074224472 0.0515189990401268 0.042222000658512115 -0.13421399891376495 0.04771700128912926
          0.041464000940322876 -0.13371600210666656 0.04744499921798706 0.04348199814558029 -0.1345359981060028 0.049355000257492065
          0.038137998431921005 -0.13256600499153137 0.04523700103163719 0.03596000000834465 -0.1333570033311844 0.04435399919748306
          0.0365849994122982 -0.13300399482250214 0.044259000569581985 0.03974800184369087 -0.13242900371551514 0.04650399833917618
          0.038235001266002655 -0.13147799670696259 0.045159000903367996 0.03685300052165985 -0.13415899872779846 0.05090299993753433
          0.036309000104665756 -0.13404999673366547 0.05104300007224083 0.03349100053310394 -0.13373200595378876 0.05005799978971481
          0.039990998804569244 -0.13436999917030334 0.051235999912023544 0.03718100115656853 -0.13336099684238434 0.051639001816511154
          0.035259999334812164 -0.13349300622940063 0.04486199840903282 0.03451399877667427 -0.1334580034017563 0.045813001692295074
          0.034178998321294785 -0.13380999863147736 0.04656499996781349 0.03348600119352341 -0.13371500372886658 0.04831099882721901
          0.042139001190662384 -0.13495700061321259 0.05151500180363655 0.04272900149226189 -0.1349329948425293 0.05186399817466736
          0.04130600020289421 -0.13484999537467957 0.051336999982595444 0.043136000633239746 -0.1345749944448471 0.05207899957895279
          0.04420600086450577 -0.1349090039730072 0.050338998436927795 0.043650999665260315 -0.13450899720191956 0.05189400166273117
          0.04069200158119202 -0.13297100365161896 0.04870200157165527 0.04259699955582619 -0.1345299929380417 0.050523001700639725
          0.04190399870276451 -0.13388100266456604 0.0497639998793602 0.04179399833083153 -0.13412800431251526 0.05035199970006943
          0.03745099902153015 -0.13207100331783295 0.04450099915266037 0.036056000739336014 -0.13275699317455292 0.04393500089645386
          0.03576900064945221 -0.13236699998378754 0.04422200098633766 0.03672099858522415 -0.13230100274085999 0.0440559983253479
          0.037255000323057175 -0.1302890032529831 0.04514800012111664 0.03741399943828583 -0.12977099418640137 0.04989299923181534
          0.037804000079631805 -0.13025100529193878 0.04589100182056427 0.03716399893164635 -0.13070300221443176 0.04465600103139877
          0.0361500009894371 -0.1335889995098114 0.0515809990465641 0.03466000035405159 -0.13285799324512482 0.05224199965596199
          0.03438299894332886 -0.13316500186920166 0.051812998950481415 0.03421499952673912 -0.13331499695777893 0.05097699910402298
          0.03826000168919563 -0.13203200697898865 0.05199100077152252 0.03865500167012215 -0.1315629929304123 0.05187999829649925
          0.039921000599861145 -0.1330060064792633 0.05139400064945221 0.04069799929857254 -0.13431400060653687 0.05112000182271004
          0.03523600101470947 -0.13277000188827515 0.04852500185370445 0.03595700114965439 -0.1318109929561615 0.04472300037741661
          0.03582900017499924 -0.13207900524139404 0.04744800180196762 0.03585299849510193 -0.13151900470256805 0.045781999826431274
          0.042399998754262924 -0.13443900644779205 0.0510529987514019 0.041717998683452606 -0.1345140039920807 0.051323000341653824
          0.03798599913716316 -0.13002599775791168 0.05147700011730194 0.04128799960017204 -0.13425099849700928 0.05087700113654137
          0.03680700063705444 -0.13159899413585663 0.04403200000524521 0.036044999957084656 -0.1318099945783615 0.044217001646757126
          0.036051999777555466 -0.13129200041294098 0.04436799883842468 0.03606000170111656 -0.13030800223350525 0.04524200037121773
          0.03675900027155876 -0.1298390030860901 0.04595300182700157 0.036913998425006866 -0.12976999580860138 0.051396001130342484
          0.03655200079083443 -0.12955200672149658 0.050606001168489456 0.03603300079703331 -0.12955500185489655 0.04982699826359749
          0.03748700022697449 -0.1297920048236847 0.05144999921321869 0.03641600161790848 -0.12958000600337982 0.046650998294353485
          0.03630699962377548 -0.13249699771404266 0.05291200056672096 0.03745599836111069 -0.13211700320243835 0.05241300165653229
          0.03515499830245972 -0.1318349987268448 0.05290500074625015 0.03464600071310997 -0.13263100385665894 0.05128199979662895
          0.0348379984498024 -0.13224700093269348 0.05157800018787384 0.035335998982191086 -0.13135699927806854 0.052903998643159866
          0.035544998943805695 -0.13248500227928162 0.04911499843001366 0.037866998463869095 -0.13163499534130096 0.05229699984192848
          0.0377499982714653 -0.13077999651432037 0.052347999066114426 0.03562900051474571 -0.13228200376033783 0.04834999889135361
          0.036072999238967896 -0.1307770013809204 0.046477001160383224 0.03610999882221222 -0.13124600052833557 0.047499001026153564
          0.035937998443841934 -0.13126400113105774 0.04822000116109848 0.03575599938631058 -0.13163800537586212 0.0485600009560585
          0.035881999880075455 -0.13096100091934204 0.045504000037908554 0.03726299852132797 -0.13046400249004364 0.05249600112438202
          0.03577899932861328 -0.13019099831581116 0.04582500085234642 0.03573400154709816 -0.12996800243854523 0.04643300175666809
          0.03558899834752083 -0.12988199293613434 0.047593001276254654 0.03604099899530411 -0.12970000505447388 0.051291998475790024
          0.037151999771595 -0.12999099493026733 0.05197500064969063 0.03665100038051605 -0.12982699275016785 0.05187100172042847
          0.03551900014281273 -0.1299709975719452 0.05065000057220459 0.03544599935412407 -0.1298840045928955 0.04853900149464607
          0.03533000126481056 -0.1299780011177063 0.050151001662015915 0.03715899959206581 -0.13186900317668915 0.05280200019478798
          0.0365619994699955 -0.13208700716495514 0.053077999502420425 0.03616400063037872 -0.13179199397563934 0.05323600023984909
          0.03591899946331978 -0.13125400245189667 0.05058399960398674 0.03550000116229057 -0.13130900263786316 0.05149799957871437
          0.035307999700307846 -0.13140399754047394 0.05198400095105171 0.03546399995684624 -0.1309259980916977 0.05196800082921982
          0.03570200130343437 -0.1305759996175766 0.052577000111341476 0.03586500138044357 -0.13164499402046204 0.04979800060391426
          0.03578599914908409 -0.13206499814987183 0.04883800074458122 0.03681499883532524 -0.1316249966621399 0.05308099836111069
          0.03594199940562248 -0.13127699494361877 0.04891499876976013 0.03552599996328354 -0.13030500710010529 0.05172999948263168
          0.03588100150227547 -0.13064299523830414 0.050331998616456985 0.03588800132274628 -0.1306779980659485 0.04950999841094017
          0.036065999418497086 -0.1310269981622696 0.04993699863553047
          <InformationKey name="L2_NORM_RANGE" location="vtkDataArray" length="2">
            <Value index="0">
              0.14245497103
            </Value>
            <Value index="1">
              0.15490250647
            </Value>
          </InformationKey>
        </DataArray>
      </Points>
      <Verts>
        <DataArray type="Int64" Name="connectivity" format="ascii" RangeMin="1e+299" RangeMax="-1e+299">
        </DataArray>
        <DataArray type="Int64" Name="offsets" format="ascii" RangeMin="1e+299" RangeMax="-1e+299">
        </DataArray>
      </Verts>
      <Lines>
        <DataArray type="Int64" Name="connectivity" format="ascii" RangeMin="1e+299" RangeMax="-1e+299">
        </DataArray>
        <DataArray type="Int64" Name="offsets" format="ascii" RangeMin="1e+299" RangeMax="-1e+299">
        </DataArray>
      </Lines>
      <Strips>
        <DataArray type="Int64" Name="connectivity" format="ascii" RangeMin="1e+299" RangeMax="-1e+299">
        </DataArray>
        <DataArray type="Int64" Name="offsets" format="ascii" RangeMin="1e+299" RangeMax="-1e+299">
        </DataArray>
      </Strips>
      <Polys>
        <DataArray type="Int32" Name="connectivity" format="ascii" RangeMin="0" RangeMax="158">
          0 1 2 0 2 3
          1 0 4 0 3 5
          5 4 0 6 2 1
          6 1 7 8 1 9
          9 1 4 8 7 1
          3 2 10 2 6 11
          10 2 11 5 3 12
          12 3 10 13 4 5
          14 4 13 14 9 4
          15 5 12 15 13 5
          7 16 6 11 6 17
          6 16 17 7 18 19
          7 19 16 18 7 20
          7 8 21 22 20 7
          7 21 22 8 9 23
          24 21 8 25 8 26
          26 8 23 8 25 24
          9 27 23 14 27 9
          10 11 28 28 12 10
          11 29 28 29 11 17
          12 30 31 15 12 31
          30 12 28 32 14 13
          13 31 32 15 31 13
          32 27 14 33 16 19
          17 16 34 33 34 16
          34 35 17 35 29 17
          33 19 18 18 36 37
          18 20 36 38 33 18
          38 18 37 22 36 20
          39 22 21 40 21 24
          40 39 21 22 41 36
          22 39 41 23 42 26
          42 23 27 43 24 25
          40 24 44 24 43 44
          26 45 25 25 45 46
          46 47 25 47 48 25
          25 48 43 42 45 26
          27 49 42 50 49 27
          32 50 27 28 29 30
          30 29 51 35 52 29
          29 52 51 31 30 49
          53 30 54 30 51 55
          54 30 56 56 30 55
          45 30 46 49 30 45
          53 46 30 50 32 31
          49 50 31 57 34 33
          58 33 38 33 58 57
          35 34 59 57 59 34
          59 52 35 60 37 36
          36 41 61 61 62 36
          60 36 62 63 38 37
          63 37 64 64 37 60
          38 63 58 39 65 66
          40 65 39 66 67 39
          39 67 41 68 40 44
          40 68 69 69 65 40
          70 61 41 71 41 72
          71 70 41 41 67 73
          72 41 73 49 45 42
          74 44 43 43 48 75
          74 43 75 76 44 74
          68 44 76 53 47 46
          54 47 53 47 54 48
          54 77 48 75 48 77
          55 51 52 78 55 52
          59 78 52 54 79 77
          56 79 54 78 79 55
          79 56 55 57 58 80
          59 57 80 58 63 80
          78 59 81 59 82 83
          81 59 83 80 82 59
          60 62 84 64 60 84
          85 62 61 86 61 70
          86 85 61 62 85 87
          62 87 84 64 88 63
          80 63 89 89 63 90
          63 88 90 88 64 91
          84 91 64 66 65 69
          92 66 69 92 93 66
          67 66 94 66 93 94
          67 94 95 73 67 95
          68 96 69 97 96 68
          98 68 99 68 98 97
          99 68 76 96 92 69
          100 70 71 101 86 70
          102 70 100 101 70 103
          102 103 70 100 71 72
          100 72 73 73 95 100
          79 74 77 74 75 77
          79 104 74 74 105 76
          105 74 104 99 76 105
          104 78 81 79 78 104
          80 106 98 89 106 80
          82 80 98 104 81 105
          107 105 81 81 83 107
          82 98 83 83 98 107
          108 84 87 91 84 108
          85 86 87 87 86 109
          101 109 86 110 108 87
          87 109 110 111 88 91
          90 88 112 88 111 112
          113 89 114 114 89 115
          89 113 116 89 116 106
          115 89 117 89 90 117
          117 90 112 91 110 111
          110 91 108 93 92 118
          92 96 119 119 118 92
          118 120 93 94 93 121
          122 121 93 93 120 123
          122 93 123 121 95 94
          124 100 95 124 95 121
          119 96 125 125 96 97
          125 97 126 97 106 126
          98 106 97 99 107 98
          105 107 99 127 102 100
          127 100 124 103 110 101
          101 110 109 103 102 128
          129 102 130 129 128 102
          127 131 102 131 130 102
          110 103 132 128 132 103
          126 106 133 116 133 106
          134 111 110 110 132 134
          134 112 111 134 111 135
          111 134 135 117 112 136
          135 112 134 112 135 136
          114 137 113 113 138 116
          138 113 139 113 137 139
          140 114 115 140 137 114
          115 141 142 140 115 142
          141 115 117 116 138 133
          136 141 117 118 119 143
          144 118 143 145 120 118
          144 145 118 125 143 119
          120 145 123 121 122 124
          146 122 147 148 122 123
          122 146 124 147 122 148
          149 148 123 149 123 150
          123 145 150 124 151 152
          124 152 127 151 124 146
          126 153 125 125 153 143
          153 126 133 131 127 152
          128 135 132 129 135 128
          129 130 136 136 135 129
          136 130 141 141 130 154
          131 154 130 151 131 152
          131 151 154 135 134 132
          133 139 150 133 138 139
          153 133 145 150 145 133
          137 150 139 137 155 150
          137 140 155 146 155 140
          140 156 146 140 142 141
          157 140 141 140 157 156
          157 141 154 144 143 153
          153 145 144 149 146 147
          149 155 146 146 156 158
          151 146 158 147 148 149
          150 155 149 151 158 157
          157 154 151 156 157 158
        </DataArray>
        <DataArray type="Int32" Name="offsets" format="ascii" RangeMin="3" RangeMax="948">
          3 6 9 12 15 18
          21 24 27 30 33 36
          39 42 45 48 51 54
          57 60 63 66 69 72
          75 78 81 84 87 90
          93 96 99 102 105 108
          111 114 117 120 123 126
          129 132 135 138 141 144
          147 150 153 156 159 162
          165 168 171 174 177 180
          183 186 189 192 195 198
          201 204 207 210 213 216
          219 222 225 228 231 234
          237 240 243 246 249 252
          255 258 261 264 267 270
          273 276 279 282 285 288
          291 294 297 300 303 306
          309 312 315 318 321 324
          327 330 333 336 339 342
          345 348 351 354 357 360
          363 366 369 372 375 378
          381 384 387 390 393 396
          399 402 405 408 411 414
          417 420 423 426 429 432
          435 438 441 444 447 450
          453 456 459 462 465 468
          471 474 477 480 483 486
          489 492 495 498 501 504
          507 510 513 516 519 522
          525 528 531 534 537 540
          543 546 549 552 555 558
          561 564 567 570 573 576
          579 582 585 588 591 594
          597 600 603 606 609 612
          615 618 621 624 627 630
          633 636 639 642 645 648
          651 654 657 660 663 666
          669 672 675 678 681 684
          687 690 693 696 699 702
          705 708 711 714 717 720
          723 726 729 732 735 738
          741 744 747 750 753 756
          759 762 765 768 771 774
          777 780 783 786 789 792
          795 798 801 804 807 810
          813 816 819 822 825 828
          831 834 837 840 843 846
          849 852 855 858 861 864
          867 870 873 876 879 882
          885 888 891 894 897 900
          903 906 909 912 915 918
          921 924 927 930 933 936
          939 942 945 948
        </DataArray>
      </Polys>
    </Piece>
  </PolyData>
</VTKFile>
