<?xml version="1.0"?>
<VTKFile type="PolyData" version="0.1" byte_order="LittleEndian" header_type="UInt32" compressor="vtkZLibDataCompressor">
  <PolyData>
    <Piece NumberOfPoints="212" NumberOfVerts="0" NumberOfLines="0" NumberOfStrips="0" NumberOfPolys="424">
      <PointData Normals="Normals">
        <DataArray type="Float32" Name="Normals" NumberOfComponents="3" format="ascii" RangeMin="0.9999993314937544" RangeMax="1.0000006482099875">
          0.4441620111465454 -0.8959460258483887 0 0.6849009990692139 -0.7163519859313965 -0.13323000073432922
          0.9439899921417236 -0.3299739956855774 0 0.7428669929504395 -0.4017840027809143 -0.5354610085487366
          0.44729501008987427 -0.23227599263191223 -0.8636990189552307 -0.7698919773101807 -0.6381739974021912 0
          -0.44363999366760254 -0.8960530161857605 0.01652500033378601 -0.7719749808311462 -0.5653179883956909 -0.29063600301742554
          -0.046852998435497284 -0.40418699383735657 -0.9134759902954102 0.684902012348175 -0.7163509726524353 0.13323000073432922
          0.7428680062294006 -0.4017780125141144 0.5354639887809753 0.44729000329971313 -0.23227199912071228 0.8637019991874695
          -0.44363999366760254 -0.8960530161857605 -0.01652500033378601 -0.7719749808311462 -0.5653179883956909 0.29063600301742554
          -0.046852998435497284 -0.40418699383735657 0.9134759902954102 0.9181519746780396 0.2772189974784851 -0.28310200572013855
          0.8979229927062988 0.44015198945999146 0 0.9181510210037231 0.27722200751304626 0.28310099244117737
          0.49014899134635925 0.4669710099697113 -0.7359970211982727 0.11014600098133087 0.34029901027679443 -0.9338439702987671
          -0.963450014591217 -0.2570750117301941 0.0753370001912117 -0.9711139798164368 -0.23861700296401978 0
          -0.963450014591217 -0.2570750117301941 -0.0753370001912117 -0.7638350129127502 -0.2835899889469147 -0.579770028591156
          -0.43295198678970337 0.14211800694465637 -0.8901429772377014 -0.9346070289611816 -0.3319079875946045 0.12785500288009644
          0.4901440143585205 0.46697700023651123 0.7359960079193115 0.11014600098133087 0.34029901027679443 0.9338439702987671
          -0.43295198678970337 0.14211800694465637 0.8901429772377014 -0.7638350129127502 -0.2835899889469147 0.579770028591156
          -0.9346070289611816 -0.3319079875946045 -0.12785500288009644 0.8088319897651672 0.4385010004043579 -0.3917999863624573
          0.8858649730682373 0.4639419913291931 0 0.8088319897651672 0.4385010004043579 0.3917999863624573
          0.5253850221633911 0.31887900829315186 -0.7888510227203369 0.15169699490070343 0.18029800057411194 -0.9718440175056458
          -0.8776019811630249 -0.3969469964504242 0.2687920033931732 -0.8903660178184509 -0.4552440047264099 0
          -0.8776019811630249 -0.3969469964504242 -0.2687920033931732 0.06922200322151184 -0.5758320093154907 -0.8146330118179321
          -0.0886240005493164 -0.06982800364494324 -0.9936140179634094 -0.5159549713134766 -0.7140160202980042 0.47325599193573
          0.5253850221633911 0.31887900829315186 0.7888510227203369 0.15169699490070343 0.18029800057411194 0.9718440175056458
          -0.0886240005493164 -0.06982800364494324 0.9936140179634094 0.06922300159931183 -0.5758309960365295 0.8146330118179321
          -0.5159540176391602 -0.7140160202980042 -0.47325798869132996 0.9066339731216431 0.17849400639533997 -0.3823019862174988
          0.9617689847946167 0.2738629877567291 0 0.9066339731216431 0.17849400639533997 0.3823019862174988
          0.6093930006027222 -0.029496999457478523 -0.7923189997673035 0.2994920015335083 -0.17575499415397644 -0.9377710223197937
          -0.8732519745826721 -0.4048140048980713 0.27121299505233765 -0.3726060092449188 -0.14223699271678925 0.9170240163803101
          -0.9207620024681091 -0.39012500643730164 0 -0.8732519745826721 -0.4048140048980713 -0.27121299505233765
          -0.3726060092449188 -0.14223699271678925 -0.9170240163803101 0.1388320028781891 0.027211999520659447 -0.9899420142173767
          0.10989999771118164 -0.25553300976753235 -0.9605339765548706 0.14498700201511383 -0.7514709830284119 -0.643638014793396
          0.32120999693870544 -0.910722017288208 -0.25963398814201355 0.6575210094451904 -0.22925099730491638 -0.7177109718322754
          0.6079689860343933 0.4041540026664734 0.6833990216255188 0.6093930006027222 -0.029496999457478523 0.7923189997673035
          0.2994920015335083 -0.17575499415397644 0.9377710223197937 0.10989999771118164 -0.25553300976753235 0.9605339765548706
          0.1388320028781891 0.027211999520659447 0.9899420142173767 0.3212119936943054 -0.9107210040092468 0.2596319913864136
          0.1449889987707138 -0.7514700293540955 0.6436390280723572 0.6575210094451904 -0.2292499989271164 0.7177119851112366
          0.6079679727554321 0.4041529893875122 -0.6833999752998352 0.9334279894828796 0.1483680009841919 -0.3266479969024658
          0.9785069823265076 0.2062149941921234 0 0.9334279894828796 0.1483680009841919 0.3266479969024658
          0.6357589960098267 -0.013287999667227268 -0.7717739939689636 0.276993989944458 -0.21682199835777283 -0.9360889792442322
          -0.6898419857025146 0.6085799932479858 0.3921090066432953 -0.1820479929447174 -0.08040700107812881 0.9799969792366028
          -0.893625020980835 0.4488140046596527 0 -0.6898419857025146 0.6085799932479858 -0.3921090066432953
          -0.1820479929447174 -0.08040700107812881 -0.9799969792366028 -0.24781399965286255 0.13730600476264954 -0.9590280055999756
          -0.013415000401437283 -0.19392800331115723 -0.9809240102767944 0.1670909970998764 0.7694100141525269 -0.6165140271186829
          -0.24163100123405457 -0.7444689869880676 -0.6223989725112915 -0.5141950249671936 -0.518775999546051 -0.6829900145530701
          -0.1322609931230545 -0.8825939893722534 -0.45114800333976746 0.9059529900550842 -0.03516300022602081 -0.42191600799560547
          0.19105400145053864 -0.9761469960212708 -0.1031230017542839 0.7381420135498047 0.2862609922885895 -0.6109020113945007
          0.9041320085525513 0.1383959949016571 0.40421798825263977 0.8165720105171204 0.577243983745575 0
          -0.744596004486084 0.6675159931182861 0 -0.5270059704780579 0.3304159939289093 0.7830010056495667
          0.6357589960098267 -0.013287999667227268 0.7717739939689636 0.276993989944458 -0.21682199835777283 0.9360889792442322
          -0.013415000401437283 -0.19392800331115723 0.9809240102767944 -0.24781399965286255 0.13730600476264954 0.9590280055999756
          0.1670909970998764 0.7694100141525269 0.6165140271186829 -0.51419597864151 -0.5187789797782898 0.6829869747161865
          -0.24163000285625458 -0.7444689869880676 0.6223989725112915 -0.13226200640201569 -0.8825939893722534 0.45114898681640625
          0.9059529900550842 -0.03516700118780136 0.4219149947166443 0.7381420135498047 0.2862609922885895 0.6109020113945007
          0.19105499982833862 -0.9761469960212708 0.10312700271606445 0.9041320085525513 0.1383959949016571 -0.40421798825263977
          -0.5270079970359802 0.3304170072078705 -0.7829989790916443 0.48209500312805176 0.7961980104446411 -0.3655860126018524
          0.6637629866600037 0.7479429841041565 0 0.48209500312805176 0.7961980104446411 0.3655860126018524
          0.1680849939584732 0.8158609867095947 -0.5532789826393127 0.035270001739263535 0.5448039770126343 -0.8378220200538635
          -0.2878279983997345 0.38612300157546997 -0.8763930201530457 -0.012631000019609928 0.9193819761276245 -0.3931640088558197
          -0.3186669945716858 0.9267860054969788 0.19879299402236938 -0.7282260060310364 0.3744469881057739 0.5740000009536743
          -0.3587839901447296 0.9334210157394409 0 -0.4924669861793518 0.7672320008277893 -0.41089001297950745
          -0.3186649978160858 0.9267870187759399 -0.19879400730133057 -0.012631000019609928 0.9193819761276245 0.3931640088558197
          -0.728227972984314 0.37444600462913513 -0.573997974395752 -0.4924669861793518 0.7672320008277893 0.41089001297950745
          -0.46919500827789307 0.634660005569458 -0.6140540242195129 0.139724999666214 0.8344910144805908 -0.5330119729042053
          -0.04256900027394295 0.00056900002527982 -0.9990929961204529 -0.8580080270767212 -0.05060499906539917 -0.5111370086669922
          -0.2261510044336319 -0.6731950044631958 -0.7040349841117859 -0.48917001485824585 -0.6227949857711792 0.6106060147285461
          -0.9220430254936218 -0.1597130000591278 0.3526029884815216 -0.28280699253082275 0.5289340019226074 -0.8001559972763062
          -0.4638499915599823 0.4921489953994751 -0.7366359829902649 0.9630969762802124 0.12421000003814697 -0.23878100514411926
          -0.0031240000389516354 0.11860699951648712 -0.9929360151290894 -0.5549280047416687 -0.8102840185165405 -0.188400000333786
          0.32981500029563904 -0.06300400197505951 -0.9419410228729248 -0.973708987236023 -0.09106899797916412 0.2088010013103485
          0.8862059712409973 -0.06527899950742722 0.4586690068244934 0.9981570243835449 -0.06067899987101555 0
          -0.7115089893341064 0.39368000626564026 -0.5820410251617432 -0.8388540148735046 0.5443559885025024 0
          -0.9494600296020508 0.22549299895763397 -0.2183540016412735 -0.974249005317688 0.07152000069618225 0.21382999420166016
          -0.7115089893341064 0.39368000626564026 0.5820410251617432 -0.9494600296020508 0.22549299895763397 0.2183540016412735
          -0.974249005317688 0.07152300328016281 -0.21382899582386017 -0.7854229807853699 0.11381000280380249 0.6084060072898865
          0.1680849939584732 0.8158609867095947 0.5532789826393127 0.035270001739263535 0.5448039770126343 0.8378220200538635
          -0.2878279983997345 0.38612300157546997 0.8763930201530457 -0.4691930115222931 0.634660005569458 0.6140559911727905
          0.13972599804401398 0.8344929814338684 0.5330089926719666 -0.2828119993209839 0.5289329886436462 0.8001539707183838
          -0.2261500060558319 -0.6731950044631958 0.7040339708328247 -0.46385499835014343 0.4921469986438751 0.7366340160369873
          -0.8580080270767212 -0.05060400068759918 0.5111380219459534 -0.04257100075483322 0.00056900002527982 0.9990929961204529
          -0.4891670048236847 -0.622793972492218 -0.6106089949607849 -0.9220430254936218 -0.15970900654792786 -0.3526040017604828
          0.9630969762802124 0.12421000003814697 0.23878100514411926 -0.0031240000389516354 0.11860699951648712 0.9929360151290894
          0.329818993806839 -0.06299799680709839 0.9419400095939636 -0.5549240112304688 -0.8102830052375793 0.18841400742530823
          -0.9737110137939453 -0.09107399731874466 -0.20878900587558746 0.8862059712409973 -0.06527899950742722 -0.4586690068244934
          -0.7854210138320923 0.11381299793720245 -0.6084079742431641 -0.8065569996833801 0.23829400539398193 0.5410000085830688
          -0.40105798840522766 0.16795000433921814 0.9005249738693237 -0.8065569996833801 0.23829400539398193 -0.5410000085830688
          -0.40105000138282776 0.16794900596141815 -0.9005290269851685 -0.5776349902153015 -0.6410840153694153 -0.5053210258483887
          -0.7657009959220886 -0.02429400011897087 -0.6427379846572876 -0.661378026008606 -0.6657580137252808 -0.34546399116516113
          -0.9278860092163086 0.22387400269508362 -0.2981730103492737 -0.6361119747161865 -0.09844700247049332 -0.7652909755706787
          -0.6569430232048035 -0.7492809891700745 -0.08368899673223495 0.7545989751815796 -0.638608992099762 -0.15085899829864502
          0.6311969757080078 -0.6248300075531006 0.45954200625419617 0.9510070085525513 -0.3091680109500885 0
          0.6311969757080078 -0.6248300075531006 -0.45954200625419617 -0.7238119840621948 0.26329201459884644 -0.6377879977226257
          -0.6508899927139282 0.25842899084091187 -0.7138329744338989 -0.7886940240859985 0.6147860288619995 0
          -0.7238119840621948 0.26329201459884644 0.6377879977226257 -0.6508899927139282 0.25842899084091187 0.7138329744338989
          -0.9278860092163086 0.22387400269508362 0.2981730103492737 -0.6361119747161865 -0.09844700247049332 0.7652909755706787
          -0.6569430232048035 -0.7492809891700745 0.08368899673223495 -0.7657009959220886 -0.02429400011897087 0.6427379846572876
          -0.5776349902153015 -0.6410840153694153 0.5053210258483887 -0.661378026008606 -0.6657580137252808 0.34546399116516113
          0.7545989751815796 -0.638608992099762 0.15085899829864502 -0.39535200595855713 -0.11699099838733673 -0.9110490083694458
          -0.12417899817228317 -0.9813339710235596 0.14684399962425232 0.1075650006532669 -0.717024028301239 -0.6886990070343018
          0.6651009917259216 -0.7467529773712158 0 -0.12417899817228317 -0.9813339710235596 -0.14684399962425232
          0.1075650006532669 -0.717024028301239 0.6886990070343018 -0.9606279730796814 0.27783799171447754 0
          -0.39535200595855713 -0.11699099838733673 0.9110490083694458 -0.09303200244903564 0.16423000395298004 -0.9820250272750854
          -0.004825000185519457 -0.08779499679803848 -0.9961270093917847 0.3338789939880371 -0.5338010191917419 -0.7769050002098083
          0.27547699213027954 -0.9613080024719238 0 0.3338789939880371 -0.5338010191917419 0.7769050002098083
          -0.004825000185519457 -0.08779499679803848 0.9961270093917847 -0.6935539841651917 -0.30643901228904724 -0.6519799828529358
          -0.7496340274810791 -0.661853015422821 0 -0.6935539841651917 -0.30643901228904724 0.6519799828529358
          -0.09303200244903564 0.16423000395298004 0.9820250272750854 -0.09751799702644348 -0.6827089786529541 -0.724153995513916
          -0.4187079966068268 -0.9081209897994995 0 -0.09751799702644348 -0.6827089786529541 0.724153995513916
          <InformationKey name="L2_NORM_RANGE" location="vtkDataArray" length="2">
            <Value index="0">
              0.99999933149
            </Value>
            <Value index="1">
              1.0000006482
            </Value>
          </InformationKey>
        </DataArray>
      </PointData>
      <CellData>
      </CellData>
      <Points>
        <DataArray type="Float32" Name="Points" NumberOfComponents="3" format="ascii" RangeMin="0.00736346617101456" RangeMax="0.05609527201057324">
          0.0004769999941345304 0.007348000071942806 0 0.014287999831140041 0.014565999619662762 -0.008983000181615353
          0.015189999714493752 0.014569000340998173 0 0.009619000367820263 0.01308200042694807 -0.018384000286459923
          0.002400000113993883 0.00988100003451109 -0.022960999980568886 -0.015475000254809856 0.000025999999706982635 0
          -0.015211000107228756 -0.0002469999890308827 -0.005394999869167805 -0.015704000368714333 -0.0001230000052601099 -0.015980999916791916
          -0.011618000455200672 0.00380200007930398 -0.02309500053524971 0.014287999831140041 0.014565999619662762 0.008983000181615353
          0.009619000367820263 0.01308200042694807 0.018384000286459923 0.002400000113993883 0.00988100003451109 0.022960999980568886
          -0.015211000107228756 -0.0002469999890308827 0.005394999869167805 -0.015704000368714333 -0.0001230000052601099 0.015980999916791916
          -0.011618000455200672 0.00380200007930398 0.02309500053524971 0.01457899995148182 0.01590299978852272 -0.010789000429213047
          0.014248999767005444 0.016540000215172768 0 0.01457899995148182 0.01590299978852272 0.010789000429213047
          0.0078940000385046 0.01566299982368946 -0.017754999920725822 -0.0006399999838322401 0.015070999972522259 -0.02158600091934204
          -0.01686199940741062 0.0076299998909235 -0.005045999772846699 -0.016781000420451164 0.007501000072807074 0
          -0.01686199940741062 0.0076299998909235 0.005045999772846699 -0.01746400073170662 0.009399999864399433 -0.016318000853061676
          -0.011001000180840492 0.010075000114738941 -0.021747000515460968 -0.018330000340938568 0.008787999860942364 -0.009634999558329582
          0.0078940000385046 0.01566299982368946 0.017754999920725822 -0.0006399999838322401 0.015070999972522259 0.02158600091934204
          -0.011001000180840492 0.010075000114738941 0.021747000515460968 -0.01746400073170662 0.009399999864399433 0.016318000853061676
          -0.018330000340938568 0.008787999860942364 0.009634999558329582 0.010379999876022339 0.021240999922156334 -0.010502000339329243
          0.011842000298202038 0.02132299914956093 0 0.010379999876022339 0.021240999922156334 0.010502000339329243
          0.004635999910533428 0.0203000009059906 -0.017309000715613365 -0.0022410000674426556 0.019708000123500824 -0.01962899975478649
          -0.019387999549508095 0.01569800078868866 -0.00648100022226572 -0.01891399919986725 0.015938999131321907 0
          -0.019387999549508095 0.01569800078868866 0.00648100022226572 -0.017721999436616898 0.014739000238478184 -0.01945899985730648
          -0.012249999679625034 0.017369000241160393 -0.020577000454068184 -0.021428000181913376 0.01551700010895729 -0.009941999800503254
          0.004635999910533428 0.0203000009059906 0.017309000715613365 -0.0022410000674426556 0.019708000123500824 0.01962899975478649
          -0.012249999679625034 0.017369000241160393 0.020577000454068184 -0.017721999436616898 0.014739000238478184 0.01945899985730648
          -0.021428000181913376 0.01551700010895729 0.009941999800503254 0.007424999959766865 0.030309999361634254 -0.010130000300705433
          0.008394000120460987 0.03210199996829033 0 0.007424999959766865 0.030309999361634254 0.010130000300705433
          0.0014570000348612666 0.028396999463438988 -0.017974000424146652 -0.003441999899223447 0.02645299956202507 -0.01971600018441677
          -0.023451000452041626 0.02157999947667122 -0.006696000229567289 -0.025560999289155006 0.02121100015938282 -0.010394999757409096
          -0.022773999720811844 0.0219969991594553 0 -0.023451000452041626 0.02157999947667122 0.006696000229567289
          -0.025560999289155006 0.02121100015938282 0.010394999757409096 -0.018640000373125076 0.02162499912083149 -0.021129999309778214
          -0.013574999757111073 0.022577999159693718 -0.020721999928355217 -0.021817000582814217 0.015928000211715698 -0.02149900048971176
          -0.023586999624967575 0.011687999591231346 -0.01752999983727932 -0.02501700073480606 0.018689999356865883 -0.02571599930524826
          -0.030393999069929123 0.014549000188708305 -0.003788999980315566 0.0014570000348612666 0.028396999463438988 0.017974000424146652
          -0.003441999899223447 0.02645299956202507 0.01971600018441677 -0.013574999757111073 0.022577999159693718 0.020721999928355217
          -0.018640000373125076 0.02162499912083149 0.021129999309778214 -0.023586999624967575 0.011687999591231346 0.01752999983727932
          -0.021817000582814217 0.015928000211715698 0.02149900048971176 -0.02501700073480606 0.018689999356865883 0.02571599930524826
          -0.030393999069929123 0.014549000188708305 0.003788999980315566 0.007021999917924404 0.035881999880075455 -0.011210000142455101
          0.0074800001457333565 0.03656600043177605 0 0.007021999917924404 0.035881999880075455 0.011210000142455101
          0.0020179999992251396 0.033257998526096344 -0.019027000293135643 -0.003857000032439828 0.03010299988090992 -0.02180499956011772
          -0.02658900059759617 0.029102999716997147 -0.008549000136554241 -0.026714999228715897 0.026944000273942947 -0.01116199977695942
          -0.02462100051343441 0.02881300076842308 0 -0.02658900059759617 0.029102999716997147 0.008549000136554241
          -0.026714999228715897 0.026944000273942947 0.01116199977695942 -0.021209999918937683 0.025875000283122063 -0.020416000857949257
          -0.012941000051796436 0.0280969999730587 -0.02286599949002266 -0.027884000912308693 0.024545999243855476 -0.020468000322580338
          -0.0316229984164238 0.013488000258803368 -0.017633000388741493 -0.034713998436927795 0.017450999468564987 -0.023740999400615692
          -0.02771100029349327 0.012404999695718288 -0.025398999452590942 -0.02457600086927414 0.007973000407218933 -0.010789000429213047
          -0.029423000290989876 0.014399000443518162 -0.0297200009226799 -0.029023999348282814 0.01811099983751774 -0.03269200026988983
          -0.026413999497890472 0.002638000063598156 -0.00522099994122982 -0.03018599934875965 0.012915000319480896 0
          -0.03937000036239624 0.012822000309824944 0 -0.03446200117468834 0.020287999883294106 -0.007891999557614326
          0.0020179999992251396 0.033257998526096344 0.019027000293135643 -0.003857000032439828 0.03010299988090992 0.02180499956011772
          -0.012941000051796436 0.0280969999730587 0.02286599949002266 -0.021209999918937683 0.025875000283122063 0.020416000857949257
          -0.027884000912308693 0.024545999243855476 0.020468000322580338 -0.034713998436927795 0.017450999468564987 0.023740999400615692
          -0.0316229984164238 0.013488000258803368 0.017633000388741493 -0.02771100029349327 0.012404999695718288 0.025398999452590942
          -0.02457600086927414 0.007973000407218933 0.010789000429213047 -0.029023999348282814 0.01811099983751774 0.03269200026988983
          -0.029423000290989876 0.014399000443518162 0.0297200009226799 -0.026413999497890472 0.002638000063598156 0.00522099994122982
          -0.03446200117468834 0.020287999883294106 0.007891999557614326 0.004999000113457441 0.04064200073480606 -0.011416000314056873
          0.0057310000993311405 0.04124400019645691 0 0.004999000113457441 0.04064200073480606 0.011416000314056873
          0.00010900000052060932 0.03832300007343292 -0.01928899995982647 -0.00684700021520257 0.03560499846935272 -0.022859999909996986
          -0.015603000298142433 0.03136400133371353 -0.02300800010561943 -0.02825300022959709 0.02660199999809265 -0.01445200014859438
          -0.03609900176525116 0.03064199909567833 -0.016405999660491943 -0.03504300117492676 0.027799999341368675 -0.010300000198185444
          -0.009445000439882278 0.03502799943089485 0 -0.024532999843358994 0.029386000707745552 -0.017549000680446625
          -0.03609900176525116 0.03064199909567833 0.016405999660491943 -0.02825300022959709 0.02660199999809265 0.01445200014859438
          -0.03504300117492676 0.027799999341368675 0.010300000198185444 -0.024532999843358994 0.029386000707745552 0.017549000680446625
          -0.03299900144338608 0.023209000006318092 -0.029174000024795532 -0.032976001501083374 0.02692599967122078 -0.018868999555706978
          -0.03242500126361847 0.005508999805897474 -0.01587899960577488 -0.036322999745607376 0.0022360000293701887 -0.012968000024557114
          -0.04043800011277199 0.017183000221848488 -0.02165300026535988 -0.04052700102329254 0.015646999701857567 -0.014539999887347221
          -0.03791100159287453 0.014924000017344952 -0.013000000268220901 -0.04288500174880028 0.026451999321579933 -0.019979000091552734
          -0.036393001675605774 0.023848000913858414 -0.021834999322891235 -0.023497000336647034 0.0009970000246539712 -0.012299000285565853
          -0.03492800146341324 -0.0020550000481307507 -0.017501000314950943 -0.033907998353242874 0.01413000002503395 -0.03298100084066391
          -0.03296700119972229 0.01708200015127659 -0.036166999489068985 -0.03710300102829933 0.02139200083911419 -0.03344399854540825
          -0.02498600073158741 -0.0029269999358803034 -0.00685499981045723 -0.029805999249219894 0.002621999941766262 0
          -0.03935299813747406 0.008616000413894653 -0.005061999894678593 -0.04630599915981293 -0.0009899999713525176 0
          -0.03515699878334999 0.008876999840140343 -0.008497999981045723 -0.03643700107932091 0.013546000234782696 -0.010658999904990196
          -0.03935299813747406 0.008616000413894653 0.005061999894678593 -0.03515699878334999 0.008876999840140343 0.008497999981045723
          -0.03643700107932091 0.013546000234782696 0.010658999904990196 -0.03570200130343437 0.020457999780774117 -0.011629999615252018
          0.00010900000052060932 0.03832300007343292 0.01928899995982647 -0.00684700021520257 0.03560499846935272 0.022859999909996986
          -0.015603000298142433 0.03136400133371353 0.02300800010561943 -0.03299900144338608 0.023209000006318092 0.029174000024795532
          -0.032976001501083374 0.02692599967122078 0.018868999555706978 -0.04288500174880028 0.026451999321579933 0.019979000091552734
          -0.04043800011277199 0.017183000221848488 0.02165300026535988 -0.036393001675605774 0.023848000913858414 0.021834999322891235
          -0.036322999745607376 0.0022360000293701887 0.012968000024557114 -0.03242500126361847 0.005508999805897474 0.01587899960577488
          -0.04052700102329254 0.015646999701857567 0.014539999887347221 -0.03791100159287453 0.014924000017344952 0.013000000268220901
          -0.023497000336647034 0.0009970000246539712 0.012299000285565853 -0.03492800146341324 -0.0020550000481307507 0.017501000314950943
          -0.03296700119972229 0.01708200015127659 0.036166999489068985 -0.033907998353242874 0.01413000002503395 0.03298100084066391
          -0.03710300102829933 0.02139200083911419 0.03344399854540825 -0.02498600073158741 -0.0029269999358803034 0.00685499981045723
          -0.03570200130343437 0.020457999780774117 0.011629999615252018 -0.047502998262643814 0.021059000864624977 -0.01674400083720684
          -0.0401730015873909 0.0209950003772974 -0.014276999980211258 -0.047502998262643814 0.021059000864624977 0.01674400083720684
          -0.0401730015873909 0.0209950003772974 0.014276999980211258 -0.03670400008559227 -0.006552999839186668 -0.009957999922335148
          -0.03787500038743019 -0.0016560000367462635 -0.01052400004118681 -0.032885000109672546 -0.009097999893128872 -0.017254000529646873
          -0.03680500015616417 0.004505000077188015 -0.009066999889910221 -0.04523700103163719 0.020136000588536263 -0.02214599959552288
          -0.04633399844169617 0.017031999304890633 -0.017201999202370644 -0.024080999195575714 -0.011636000126600266 -0.013666000217199326
          -0.026931999251246452 -0.006318000145256519 -0.005444999784231186 -0.030842000618577003 -0.003894000081345439 0
          -0.026931999251246452 -0.006318000145256519 0.005444999784231186 -0.04190099984407425 0.0027099999133497477 -0.004273999948054552
          -0.04383999854326248 -0.0024309998843818903 -0.0041600000113248825 -0.054572999477386475 -0.004416000097990036 0
          -0.04190099984407425 0.0027099999133497477 0.004273999948054552 -0.04383999854326248 -0.0024309998843818903 0.0041600000113248825
          -0.03680500015616417 0.004505000077188015 0.009066999889910221 -0.04523700103163719 0.020136000588536263 0.02214599959552288
          -0.04633399844169617 0.017031999304890633 0.017201999202370644 -0.03787500038743019 -0.0016560000367462635 0.01052400004118681
          -0.03670400008559227 -0.006552999839186668 0.009957999922335148 -0.032885000109672546 -0.009097999893128872 0.017254000529646873
          -0.024080999195575714 -0.011636000126600266 0.013666000217199326 -0.042743001133203506 -0.0070870001800358295 -0.004342999774962664
          -0.03206200152635574 -0.00812000036239624 -0.007826000452041626 -0.037546999752521515 -0.008539999835193157 -0.00509499991312623
          -0.03592099994421005 -0.013747000135481358 0 -0.03206200152635574 -0.00812000036239624 0.007826000452041626
          -0.037546999752521515 -0.008539999835193157 0.00509499991312623 -0.05518199875950813 -0.010080999694764614 0
          -0.042743001133203506 -0.0070870001800358295 0.004342999774962664 -0.0453759990632534 -0.011586000211536884 -0.004732999950647354
          -0.041499000042676926 -0.012884999625384808 -0.004749000072479248 -0.041662998497486115 -0.017364000901579857 -0.0036869999021291733
          -0.04326599836349487 -0.01868700049817562 0 -0.041662998497486115 -0.017364000901579857 0.0036869999021291733
          -0.041499000042676926 -0.012884999625384808 0.004749000072479248 -0.05186000093817711 -0.014453000389039516 -0.004792000167071819
          -0.05230100080370903 -0.016282999888062477 0 -0.05186000093817711 -0.014453000389039516 0.004792000167071819
          -0.0453759990632534 -0.011586000211536884 0.004732999950647354 -0.049042001366615295 -0.017589999362826347 -0.005584000144153833
          -0.04749799892306328 -0.019215000793337822 0 -0.049042001366615295 -0.017589999362826347 0.005584000144153833
          <InformationKey name="L2_NORM_RANGE" location="vtkDataArray" length="2">
            <Value index="0">
              0.007363466171
            </Value>
            <Value index="1">
              0.056095272011
            </Value>
          </InformationKey>
        </DataArray>
      </Points>
      <Verts>
        <DataArray type="Int64" Name="connectivity" format="ascii" RangeMin="1e+299" RangeMax="-1e+299">
        </DataArray>
        <DataArray type="Int64" Name="offsets" format="ascii" RangeMin="1e+299" RangeMax="-1e+299">
        </DataArray>
      </Verts>
      <Lines>
        <DataArray type="Int64" Name="connectivity" format="ascii" RangeMin="1e+299" RangeMax="-1e+299">
        </DataArray>
        <DataArray type="Int64" Name="offsets" format="ascii" RangeMin="1e+299" RangeMax="-1e+299">
        </DataArray>
      </Lines>
      <Strips>
        <DataArray type="Int64" Name="connectivity" format="ascii" RangeMin="1e+299" RangeMax="-1e+299">
        </DataArray>
        <DataArray type="Int64" Name="offsets" format="ascii" RangeMin="1e+299" RangeMax="-1e+299">
        </DataArray>
      </Strips>
      <Polys>
        <DataArray type="Int32" Name="connectivity" format="ascii" RangeMin="0" RangeMax="211">
          0 1 2 0 3 1
          0 4 3 0 5 6
          6 7 0 0 7 8
          8 4 0 2 9 0
          9 10 0 10 11 0
          12 5 0 0 13 12
          14 13 0 0 11 14
          2 1 15 15 1 3
          16 2 15 17 9 2
          17 2 16 18 15 3
          18 3 4 19 18 4
          19 4 8 20 6 5
          21 20 5 5 12 22
          5 22 21 6 20 7
          7 23 24 8 7 24
          25 23 7 20 25 7
          24 19 8 10 9 17
          10 17 26 11 10 26