<?xml version="1.0"?>
<VTKFile type="PolyData" version="0.1" byte_order="LittleEndian" header_type="UInt32" compressor="vtkZLibDataCompressor">
  <PolyData>
    <Piece NumberOfPoints="212" NumberOfVerts="0" NumberOfLines="0" NumberOfStrips="0" NumberOfPolys="424">
      <PointData Normals="Normals">
        <DataArray type="Float32" Name="Normals" NumberOfComponents="3" format="ascii" RangeMin="0.9999994178297202" RangeMax="1.000000596362394">
          -0.05634799972176552 -0.9984109997749329 0 0.3688940107822418 -0.905709981918335 -0.20882199704647064
          0.6484330296516418 -0.7612720131874084 0 0.5523210167884827 -0.6127309799194336 -0.5652459859848022
          0.28105399012565613 -0.3521899878978729 -0.8927320241928101 -0.9339669942855835 -0.35735899209976196 0
          -0.7702400088310242 -0.6375219821929932 0.017193999141454697 -0.9155529737472534 -0.28786700963974 -0.28088200092315674
          -0.29001298546791077 -0.2763589918613434 -0.9162520170211792 0.3688940107822418 -0.905709981918335 0.20882199704647064
          0.5523210167884827 -0.6127309799194336 0.5652459859848022 0.28105399012565613 -0.3521899878978729 0.8927320241928101
          -0.7702400088310242 -0.6375219821929932 -0.017193999141454697 -0.9155539870262146 -0.28786298632621765 0.2808839976787567
          -0.29001298546791077 -0.2763589918613434 0.9162520170211792 0.9636639952659607 -0.05147700011730194 -0.26210999488830566
          0.9923269748687744 -0.1236409991979599 0 0.9636639952659607 -0.05147700011730194 0.26210999488830566
          0.5982469916343689 0.3283129930496216 -0.7309659719467163 0.23001399636268616 0.3152469992637634 -0.9207130074501038
          -0.9970459938049316 0.02932099997997284 0.07098700106143951 -0.9974420070648193 0.07147499918937683 0
          -0.9970459938049316 0.02932099997997284 -0.07098700106143951 -0.817156970500946 -0.06749100238084793 -0.5724509954452515
          -0.33889299631118774 0.32012999057769775 -0.8846859931945801 -0.9916470050811768 -0.049695998430252075 0.11902599781751633
          0.5982469916343689 0.3283129930496216 0.7309659719467163 0.23001399636268616 0.3152469992637634 0.9207130074501038
          -0.3388940095901489 0.32013198733329773 0.8846840262413025 -0.8171560168266296 -0.0674860030412674 0.5724520087242126
          -0.9916480183601379 -0.04968800023198128 -0.11901699751615524 0.9024029970169067 0.17275500297546387 -0.3947469890117645
          0.9758780002593994 0.2183160036802292 0 0.9024029970169067 0.17275500297546387 0.3947469890117645
          0.6033009886741638 0.12553100287914276 -0.7875720262527466 0.206278994679451 0.11905500292778015 -0.971222996711731
          -0.9594100117683411 -0.09100999683141708 0.26692700386047363 -0.9910789728164673 -0.13327500224113464 0.0000019999999949504854
          -0.9594110250473022 -0.09100700169801712 -0.2669239938259125 -0.1399340033531189 -0.5874419808387756 -0.7970759868621826
          -0.10049200057983398 -0.06171000003814697 -0.9930220246315002 -0.7219619750976562 -0.5159900188446045 0.46100398898124695
          0.6033009886741638 0.12553100287914276 0.7875720262527466 0.206278994679451 0.11905500292778015 0.971222996711731
          -0.100491002202034 -0.061709001660346985 0.9930220246315002 -0.13993200659751892 -0.587444007396698 0.7970749735832214
          -0.7219700217247009 -0.5159890055656433 -0.46099400520324707 0.9135580062866211 -0.13300800323486328 -0.3843440115451813
          0.9981619715690613 -0.06059399992227554 0 0.9135580062866211 -0.13300800323486328 0.3843440115451813
          0.5594450235366821 -0.23104700446128845 -0.7960140109062195 0.21519500017166138 -0.2652199864387512 -0.9398670196533203
          -0.9581019878387451 -0.09118899703025818 0.27152401208877563 -0.39829200506210327 -0.009837999939918518 0.9172059893608093
          -0.9980720281600952 -0.06207500025629997 0.000004999999873689376 -0.9581009745597839 -0.09118899703025818 -0.2715269923210144
          -0.3982889950275421 -0.009836000390350819 -0.9172070026397705 0.13897199928760529 -0.021462000906467438 -0.9900640249252319
          0.009220000356435776 -0.2766200006008148 -0.9609349966049194 -0.13824599981307983 -0.7531579732894897 -0.6431499719619751
          -0.027796000242233276 -0.9651709794998169 -0.260140985250473 0.5329710245132446 -0.44005900621414185 -0.7226970195770264
          0.7105429768562317 0.17661599814891815 0.6811280250549316 0.5594450235366821 -0.23104700446128845 0.7960140109062195
          0.21519500017166138 -0.2652199864387512 0.9398670196533203 0.009220999665558338 -0.276621013879776 0.9609349966049194
          0.13897299766540527 -0.0214610006660223 0.9900630116462708 -0.027797000482678413 -0.9651709794998169 0.260140985250473
          -0.13824500143527985 -0.7531560063362122 0.6431509852409363 0.5329679846763611 -0.44005799293518066 0.722698986530304
          0.7105420231819153 0.17661699652671814 -0.6811280250549316 0.9386280179023743 -0.037473998963832855 -0.3428890109062195
          0.999288022518158 -0.0377190001308918 0 0.9386280179023743 -0.037473998963832855 0.3428890109062195
          0.6061069965362549 -0.1938129961490631 -0.7714080214500427 0.17926399409770966 -0.29629701375961304 -0.9381219744682312
          -0.42808499932289124 0.8104919791221619 0.3998059928417206 -0.19815200567245483 -0.01907999999821186 0.9799860119819641
          -0.6812989711761475 0.7320050001144409 0 -0.4280869960784912 0.8104910254478455 -0.39980700612068176
          -0.1981460005044937 -0.01908300071954727 -0.9799870252609253 -0.18102499842643738 0.21132799983024597 -0.9605050086975098
          -0.08291800320148468 -0.17775900661945343 -0.9805750250816345 0.42826899886131287 0.6639500260353088 -0.6129900217056274
          -0.48993000388145447 -0.6126030087471008 -0.6202309727668762 -0.6624040007591248 -0.3123379945755005 -0.6809300184249878
          -0.427947998046875 -0.7824749946594238 -0.45232000946998596 0.8409720063209534 -0.33489400148391724 -0.42498499155044556
          -0.1668200045824051 -0.979781985282898 -0.11044199764728546 0.7903259992599487 0.016628999263048172 -0.6124600172042847
          0.8972319960594177 -0.169964998960495 0.4075370132923126 0.9637560248374939 0.26678600907325745 0
          -0.4377500116825104 0.8990970253944397 0 -0.37856099009513855 0.4876849949359894 0.7866740226745605
          0.6061069965362549 -0.1938129961490631 0.7714080214500427 0.17926399409770966 -0.29629701375961304 0.9381219744682312
          -0.08291800320148468 -0.17775900661945343 0.9805750250816345 -0.18102499842643738 0.21132799983024597 0.9605050086975098
          0.4282670021057129 0.6639509797096252 0.6129890084266663 -0.6624040007591248 -0.3123379945755005 0.6809300184249878
          -0.48993000388145447 -0.6126030087471008 0.6202309727668762 -0.42795100808143616 -0.7824749946594238 0.452318012714386
          0.8409720063209534 -0.33489400148391724 0.42498499155044556 0.7903239727020264 0.016631999984383583 0.6124640107154846
          -0.16682399809360504 -0.9797809720039368 0.11044400185346603 0.8972319960594177 -0.169964998960495 -0.4075370132923126
          -0.37856099009513855 0.4876849949359894 -0.7866740226745605 0.6756029725074768 0.6716579794883728 -0.3040339946746826
          0.7573660016059875 0.652990996837616 0 0.6756029725074768 0.6716579794883728 0.3040339946746826
          0.4791739881038666 0.7151370048522949 -0.5088919997215271 0.22988000512123108 0.5010219812393188 -0.8343459963798523
          -0.12781399488449097 0.46066200733184814 -0.8783249855041504 0.312485009431839 0.8662580251693726 -0.38980698585510254
          0.03334200009703636 0.9782310128211975 0.20482300221920013 -0.5514919757843018 0.599245011806488 0.5803130269050598
          0.007170000113546848 0.9999740123748779 0 -0.1818690001964569 0.8919230103492737 -0.4140009880065918
          0.03334200009703636 0.9782310128211975 -0.20482300221920013 0.312485009431839 0.8662580251693726 0.38980698585510254
          -0.5514919757843018 0.599245011806488 -0.5803130269050598 -0.1818690001964569 0.8919230103492737 0.4140009880065918
          -0.2154030054807663 0.7568770051002502 -0.6170409917831421 0.42765098810195923 0.7329080104827881 -0.5291129946708679
          -0.04005799815058708 0.01592699997127056 -0.9990699887275696 -0.8233019709587097 0.23907800018787384 -0.5147960186004639
          -0.4507569968700409 -0.5516700148582458 -0.7017679810523987 -0.6745759844779968 -0.4156300127506256 0.6100810170173645
          -0.9205679893493652 0.15945400297641754 0.35655200481414795 -0.07368099689483643 0.5944809913635254 -0.8007270097732544
          -0.2562029957771301 0.6206309795379639 -0.7410650253295898 0.9499080181121826 -0.2043289989233017 -0.23648199439048767
          0.037758998572826385 0.11388999968767166 -0.9927759766578674 -0.7976319789886475 -0.5733090043067932 -0.18735100328922272
          0.2828119993209839 -0.17630800604820251 -0.9428319931030273 -0.9481059908866882 0.23486100137233734 0.2143229991197586
          0.8097670078277588 -0.3587450087070465 0.46430501341819763 0.919655978679657 -0.39272400736808777 0
          -0.48416000604629517 0.6038140058517456 -0.633243978023529 -0.6404550075531006 0.7679960131645203 0
          -0.8144479990005493 0.5360519886016846 -0.2220889925956726 -0.8919879794120789 0.3963080048561096 0.21747900545597076
          -0.48416000604629517 0.6038140058517456 0.633243978023529 -0.8144479990005493 0.5360519886016846 0.2220889925956726
          -0.8919879794120789 0.3963080048561096 -0.21747900545597076 -0.6970700025558472 0.3706760108470917 0.6137530207633972
          0.4791739881038666 0.7151370048522949 0.5088919997215271 0.22988000512123108 0.5010219812393188 0.8343459963798523
          -0.12781399488449097 0.46066200733184814 0.8783249855041504 -0.2154030054807663 0.7568770051002502 0.6170409917831421
          0.42765098810195923 0.7329080104827881 0.5291129946708679 -0.07368099689483643 0.5944809913635254 0.8007270097732544
          -0.4507569968700409 -0.5516700148582458 0.7017679810523987 -0.2562029957771301 0.6206309795379639 0.7410650253295898
          -0.8233050107955933 0.23907899856567383 0.5147910118103027 -0.04005799815058708 0.01592699997127056 0.9990699887275696
          -0.6745759844779968 -0.4156300127506256 -0.6100810170173645 -0.9205679893493652 0.15945400297641754 -0.35655200481414795
          0.9499080181121826 -0.2043289989233017 0.23648199439048767 0.037758998572826385 0.11388999968767166 0.9927759766578674
          0.2828119993209839 -0.17630800604820251 0.9428319931030273 -0.7976319789886475 -0.5733090043067932 0.18735100328922272
          -0.9481059908866882 0.23486100137233734 -0.2143229991197586 0.8097670078277588 -0.3587450087070465 -0.46430501341819763
          -0.6970700025558472 0.3706760108470917 -0.6137530207633972 -0.6728590130805969 0.5002239942550659 0.5450109839439392
          -0.3127950131893158 0.2915639877319336 0.903963029384613 -0.6728590130805969 0.5002239942550659 -0.5450109839439392
          -0.3127950131893158 0.2915639877319336 -0.903963029384613 -0.7640680074691772 -0.4043860137462616 -0.5026659965515137
          -0.726207971572876 0.23345699906349182 -0.6466220021247864 -0.849694013595581 -0.39792901277542114 -0.3459379971027374
          -0.794471025466919 0.5258709788322449 -0.30376899242401123 -0.6303189992904663 0.12358599901199341 -0.766435980796814
          -0.8743699789047241 -0.478410005569458 -0.08124899864196777 0.4865280091762543 -0.8604639768600464 -0.15130400657653809
          0.3676240146160126 -0.8038979768753052 0.4675480127334595 0.7870429754257202 -0.6168980002403259 0
          0.3676240146160126 -0.8038979768753052 -0.4675480127334595 -0.5560969710350037 0.46274301409721375 -0.6903809905052185
          -0.5135440230369568 0.3873330056667328 -0.7656670212745667 -0.7085630297660828 0.7056469917297363 0
          -0.5560969710350037 0.46274301409721375 0.6903809905052185 -0.5135430097579956 0.3873310089111328 0.7656679749488831
          -0.7944729924201965 0.5258679986000061 0.30376899242401123 -0.6303189992904663 0.12358599901199341 0.766435980796814
          -0.8743699789047241 -0.478410005569458 0.08124899864196777 -0.7262120246887207 0.2334579974412918 0.6466169953346252
          -0.7640730142593384 -0.4043799936771393 0.5026630163192749 -0.849694013595581 -0.39792901277542114 0.3459379971027374
          0.4865280091762543 -0.8604639768600464 0.15130400657653809 -0.4097970128059387 0.022081000730395317 -0.9119089841842651
          -0.46643200516700745 -0.8724150061607361 0.14605599641799927 -0.15780000388622284 -0.7075560092926025 -0.6888129711151123
          0.35355299711227417 -0.9354140162467957 0 -0.46643200516700745 -0.8724150061607361 -0.14605599641799927
          -0.15780000388622284 -0.7075560092926025 0.6888129711151123 -0.8067839741706848 0.5908470153808594 0
          -0.40979599952697754 0.022082999348640442 0.9119099974632263 -0.026844000443816185 0.1854889988899231 -0.9822800159454346
          -0.036375001072883606 -0.08091200143098831 -0.9960569739341736 0.11817099899053574 -0.6154360175132751 -0.7792779803276062
          -0.09210000187158585 -0.9957500100135803 0 0.11817099899053574 -0.6154360175132751 0.7792779803276062
          -0.036375001072883606 -0.08091200143098831 0.9960569739341736 -0.7541390061378479 -0.05561700090765953 -0.6543560028076172
          -0.9293069839477539 -0.3693070113658905 0 -0.7541390061378479 -0.05561700090765953 0.6543560028076172
          -0.026844000443816185 0.1854889988899231 0.9822800159454346 -0.335114985704422 -0.6049690246582031 -0.7222959995269775
          -0.7084130048751831 -0.7057979702949524 0 -0.335114985704422 -0.6049690246582031 0.7222959995269775
          <InformationKey name="L2_NORM_RANGE" location="vtkDataArray" length="2">
            <Value index="0">
              0.99999941783
            </Value>
            <Value index="1">
              1.0000005964
            </Value>
          </InformationKey>
        </DataArray>
      </PointData>
      <CellData>
      </CellData>
      <Points>
        <DataArray type="Float32" Name="Points" NumberOfComponents="3" format="ascii" RangeMin="0.009413814706398658" RangeMax="0.0564683451050459">
          0.005778000224381685 0.007431999780237675 0 0.02171500027179718 0.008914999663829803 -0.00927099958062172
          0.019169000908732414 0.005107999779284 0 0.01664699986577034 0.009246000088751316 -0.01897300034761429
          0.007751999888569117 0.008847000077366829 -0.02369699999690056 -0.012218999676406384 0.009778999723494053 0
          -0.012120000086724758 0.009390000253915787 -0.0055680000223219395 -0.012501000426709652 0.00977300014346838 -0.016493000090122223
          -0.006858999840915203 0.010986999608576298 -0.02383499965071678 0.02171500027179718 0.008914999663829803 0.00927099958062172
          0.01664699986577034 0.009246000088751316 0.01897300034761429 0.007751999888569117 0.008847000077366829 0.02369699999690056
          -0.012120000086724758 0.009390000253915787 0.0055680000223219395 -0.012501000426709652 0.00977300014346838 0.016493000090122223
          -0.006858999840915203 0.010986999608576298 0.02383499965071678 0.022456999868154526 0.010095999576151371 -0.011134999804198742
          0.022353999316692352 0.010835000313818455 0 0.022456999868154526 0.010095999576151371 0.011134999804198742
          0.01510000042617321 0.01235399954020977 -0.018324000760912895 0.006564000155776739 0.01500799972563982 -0.022276999428868294
          -0.011673999950289726 0.015488999895751476 -0.00520800007507205 -0.011640000157058239 0.015333999879658222 0
          -0.011673999950289726 0.015488999895751476 0.00520800007507205 -0.011655000038444996 0.01742600090801716 -0.016840999945998192
          -0.005266000051051378 0.014100000262260437 -0.022444000467658043 -0.01271000038832426 0.017162000760436058 -0.009944000281393528
          0.01510000042617321 0.01235399954020977 0.018324000760912895 0.006564000155776739 0.01500799972563982 0.022276999428868294
          -0.005266000051051378 0.014100000262260437 0.022444000467658043 -0.011655000038444996 0.01742600090801716 0.016840999945998192
          -0.01271000038832426 0.017162000760436058 0.009944000281393528 0.019440000876784325 0.016800999641418457 -0.010839000344276428
          0.020896999165415764 0.016327999532222748 0 0.019440000876784325 0.016800999641418457 0.010839000344276428
          0.013509999960660934 0.018063999712467194 -0.01786400005221367 0.006591999903321266 0.020090999081730843 -0.020258000120520592
          -0.011525999754667282 0.022700000554323196 -0.006688999943435192 -0.010979999788105488 0.02275400049984455 0
          -0.011525999754667282 0.022700000554323196 0.006688999943435192 -0.010228999890387058 0.021144000813364983 -0.020082000643014908
          -0.003982999827712774 0.021615000441670418 -0.021237000823020935 -0.013580000028014183 0.023296000435948372 -0.010259999893605709
          0.013509999960660934 0.018063999712467194 0.01786400005221367 0.006591999903321266 0.020090999081730843 0.020258000120520592
          -0.003982999827712774 0.021615000441670418 0.021237000823020935 -0.010228999890387058 0.021144000813364983 0.020082000643014908
          -0.013580000028014183 0.023296000435948372 0.010259999893605709 0.019666999578475952 0.0266759991645813 -0.010455000214278698
          0.02122800052165985 0.028040999546647072 0 0.019666999578475952 0.0266759991645813 0.010455000214278698
          0.013183999806642532 0.02708500064909458 -0.018549999222159386 0.007734000217169523 0.02705799974501133 -0.020347999408841133
          -0.01347499992698431 0.029915999621152878 -0.006910999771207571 -0.015660999342799187 0.030357999727129936 -0.010727999731898308
          -0.012671000324189663 0.030062999576330185 0 -0.01347499992698431 0.029915999621152878 0.006910999771207571
          -0.015660999342799187 0.030357999727129936 0.010727999731898308 -0.008762000128626823 0.028140999376773834 -0.021807000041007996
          -0.003490000031888485 0.027147000655531883 -0.021385999396443367 -0.013818000443279743 0.023840999230742455 -0.02218800038099289
          -0.017000999301671982 0.02041500061750412 -0.018091000616550446 -0.015994999557733536 0.027716999873518944 -0.02653999999165535
          -0.022665999829769135 0.02575100027024746 -0.003911000210791826 0.013183999806642532 0.02708500064909458 0.018549999222159386
          0.007734000217169523 0.02705799974501133 0.020347999408841133 -0.003490000031888485 0.027147000655531883 0.021385999396443367
          -0.008762000128626823 0.028140999376773834 0.021807000041007996 -0.017000999301671982 0.02041500061750412 0.018091000616550446
          -0.013818000443279743 0.023840999230742455 0.02218800038099289 -0.015994999557733536 0.027716999873518944 0.02653999999165535
          -0.022665999829769135 0.02575100027024746 0.003911000210791826 0.021184999495744705 0.03220999985933304 -0.01157000008970499
          0.021866999566555023 0.03269699960947037 0 0.021184999495744705 0.03220999985933304 0.01157000008970499
          0.01539899967610836 0.03156699985265732 -0.01963699981570244 0.008580000139772892 0.030741000548005104 -0.02250399999320507
          -0.013957000337541103 0.038366999477148056 -0.008822999894618988 -0.014821000397205353 0.036329999566078186 -0.01152000017464161
          -0.012136000208556652 0.03734299913048744 0 -0.013957000337541103 0.038366999477148056 0.008822999894618988
          -0.014821000397205353 0.036329999566078186 0.01152000017464161 -0.009813000448048115 0.03321700170636177 -0.021069999784231186
          -0.0009769999887794256 0.03223700076341629 -0.02359900064766407 -0.0167859997600317 0.03445599973201752 -0.02112399972975254
          -0.024229999631643295 0.025189999490976334 -0.018198000267148018 -0.025887999683618546 0.03018599934875965 -0.024501999840140343
          -0.020781999453902245 0.022665999829769135 -0.02621299959719181 -0.019240999594330788 0.017201000824570656 -0.011134999804198742
          -0.021769000217318535 0.025237999856472015 -0.030672000721096992 -0.02010600082576275 0.028672000393271446 -0.03373999893665314
          -0.022866999730467796 0.012742999941110611 -0.005388000048696995 -0.023024000227451324 0.024094000458717346 0
          -0.03202199935913086 0.02747499942779541 0 -0.024669000878930092 0.032829999923706055 -0.008144999854266644
          0.01539899967610836 0.03156699985265732 0.01963699981570244 0.008580000139772892 0.030741000548005104 0.02250399999320507
          -0.0009769999887794256 0.03223700076341629 0.02359900064766407 -0.009813000448048115 0.03321700170636177 0.021069999784231186
          -0.0167859997600317 0.03445599973201752 0.02112399972975254 -0.025887999683618546 0.03018599934875965 0.024501999840140343
          -0.024229999631643295 0.025189999490976334 0.018198000267148018 -0.020781999453902245 0.022665999829769135 0.02621299959719181
          -0.019240999594330788 0.017201000824570656 0.011134999804198742 -0.02010600082576275 0.028672000393271446 0.03373999893665314
          -0.021769000217318535 0.025237999856472015 0.030672000721096992 -0.022866999730467796 0.012742999941110611 0.005388000048696995
          -0.024669000878930092 0.032829999923706055 0.008144999854266644 0.019346000626683235 0.03749699890613556 -0.011781999841332436
          0.020267000421881676 0.03780199959874153 0 0.019346000626683235 0.03749699890613556 0.011781999841332436
          0.015273000113666058 0.03717999905347824 -0.01990699954330921 0.007548999972641468 0.03718400001525879 -0.023592999204993248
          -0.002455000067129731 0.03639800101518631 -0.02374500036239624 -0.016440000385046005 0.036580998450517654 -0.014914999715983868
          -0.022715000435709953 0.04344800114631653 -0.016930999234318733 -0.022657999768853188 0.0403049997985363 -0.01063000038266182
          0.004813999868929386 0.037608999758958817 0 -0.011853000149130821 0.037863001227378845 -0.018112000077962875
          -0.022715000435709953 0.04344800114631653 0.016930999234318733 -0.016440000385046005 0.036580998450517654 0.014914999715983868
          -0.022657999768853188 0.0403049997985363 0.01063000038266182 -0.011853000149130821 0.037863001227378845 0.018112000077962875
          -0.022237999364733696 0.03509800136089325 -0.030108999460935593 -0.02094000019133091 0.03867899999022484 -0.0194729994982481
          -0.027751000598073006 0.017788000404834747 -0.016388000920414925 -0.0326789990067482 0.016100000590085983 -0.013384000398218632
          -0.03156900033354759 0.03209099918603897 -0.022346999496221542 -0.0321820005774498 0.03064100071787834 -0.01500600017607212
          -0.029875999316573143 0.028953999280929565 -0.013415999710559845 -0.030778000131249428 0.0419670008122921 -0.02061999961733818
          -0.025333000347018242 0.036997999995946884 -0.022533999755978584 -0.020580999553203583 0.01005600020289421 -0.01269300002604723
          -0.03278899937868118 0.011428999714553356 -0.01806199923157692 -0.026240000501275063 0.026674000546336174 -0.0340379998087883
          -0.024309000000357628 0.029169000685214996 -0.03732600063085556 -0.026869000867009163 0.034894999116659164 -0.034515999257564545
          -0.023381000384688377 0.006829000078141689 -0.007075000088661909 -0.026182999834418297 0.014011000283062458 0
          -0.03344900161027908 0.02340799942612648 -0.005224000196903944 -0.04258200153708458 0.019631000235676765 0
          -0.02926200069487095 0.02207300066947937 -0.008771000429987907 -0.02891100011765957 0.027065999805927277 -0.011001000180840492
          -0.03344900161027908 0.02340799942612648 0.005224000196903944 -0.02926200069487095 0.02207300066947937 0.008771000429987907
          -0.02891100011765957 0.027065999805927277 0.011001000180840492 -0.025821000337600708 0.03346399962902069 -0.012002999894320965
          0.015273000113666058 0.03717999905347824 0.01990699954330921 0.007548999972641468 0.03718400001525879 0.023592999204993248
          -0.002455000067129731 0.03639800101518631 0.02374500036239624 -0.022237999364733696 0.03509800136089325 0.030108999460935593
          -0.02094000019133091 0.03867899999022484 0.0194729994982481 -0.030778000131249428 0.0419670008122921 0.02061999961733818
          -0.03156900033354759 0.03209099918603897 0.022346999496221542 -0.025333000347018242 0.036997999995946884 0.022533999755978584
          -0.0326789990067482 0.016100000590085983 0.013384000398218632 -0.027751000598073006 0.017788000404834747 0.016388000920414925
          -0.0321820005774498 0.03064100071787834 0.01500600017607212 -0.029875999316573143 0.028953999280929565 0.013415999710559845
          -0.020580999553203583 0.01005600020289421 0.01269300002604723 -0.03278899937868118 0.011428999714553356 0.01806199923157692
          -0.024309000000357628 0.029169000685214996 0.03732600063085556 -0.026240000501275063 0.026674000546336174 0.0340379998087883
          -0.026869000867009163 0.034894999116659164 0.034515999257564545 -0.023381000384688377 0.006829000078141689 0.007075000088661909
          -0.025821000337600708 0.03346399962902069 0.012002999894320965 -0.037137001752853394 0.03850499913096428 -0.017280999571084976
          -0.03000199981033802 0.03567099943757057 -0.01473500020802021 -0.037137001752853394 0.03850499913096428 0.017280999571084976
          -0.03000199981033802 0.03567099943757057 0.01473500020802021 -0.03606700152158737 0.007757000159472227 -0.01027700025588274
          -0.0355289988219738 0.012928999960422516 -0.010861000046133995 -0.03320999816060066 0.0038560000248253345 -0.017806999385356903
          -0.032370999455451965 0.018473999574780464 -0.009358000010251999 -0.03524100035429001 0.03675699979066849 -0.022856000810861588
          -0.037376999855041504 0.03417399898171425 -0.01775299943983555 -0.025485999882221222 -0.0019239999819546938 -0.01410400029271841
          -0.026443999260663986 0.004290999844670296 -0.005619999952614307 -0.029430000111460686 0.008108999580144882 0
          -0.026443999260663986 0.004290999844670296 0.005619999952614307 -0.03796299919486046 0.01866699941456318 -0.0044109998270869255
          -0.04162000119686127 0.014434999786317348 -0.0042929998598992825 -0.05277999863028526 0.016574999317526817 0
          -0.03796299919486046 0.01866699941456318 0.0044109998270869255 -0.04162000119686127 0.014434999786317348 0.0042929998598992825
          -0.032370999455451965 0.018473999574780464 0.009358000010251999 -0.03524100035429001 0.03675699979066849 0.022856000810861588
          -0.037376999855041504 0.03417399898171425 0.01775299943983555 -0.0355289988219738 0.012928999960422516 0.010861000046133995
          -0.03606700152158737 0.007757000159472227 0.01027700025588274 -0.03320999816060066 0.0038560000248253345 0.017806999385356903
          -0.025485999882221222 -0.0019239999819546938 0.01410400029271841 -0.042146001011133194 0.009523999877274036 -0.004482000134885311
          -0.032072000205516815 0.004488999955356121 -0.008077000267803669 -0.037571001797914505 0.006157000083476305 -0.005259000230580568
          -0.037769999355077744 0.000514000013936311 0 -0.032072000205516815 0.004488999955356121 0.008077000267803669
          -0.037571001797914505 0.006157000083476305 0.005259000230580568 -0.05531900003552437 0.011335000395774841 0
          -0.042146001011133194 0.009523999877274036 0.004482000134885311 -0.046261001378297806 0.006175000220537186 -0.004883999936282635
          -0.042920999228954315 0.0034549999982118607 -0.004902000073343515 -0.044617000967264175 -0.0008079999824985862 -0.00380500010214746
          -0.04663600027561188 -0.0014809999847784638 0 -0.044617000967264175 -0.0008079999824985862 0.00380500010214746
          -0.042920999228954315 0.0034549999982118607 0.004902000073343515 -0.053575001657009125 0.0058570001274347305 -0.004945999942719936
          -0.0546329990029335 0.004255999810993671 0 -0.053575001657009125 0.0058570001274347305 0.004945999942719936
          -0.046261001378297806 0.006175000220537186 0.004883999936282635 -0.051899999380111694 0.001762000028975308 -0.005762999877333641
          -0.05094999819993973 -0.0003910000086762011 0 -0.051899999380111694 0.001762000028975308 0.005762999877333641
          <InformationKey name="L2_NORM_RANGE" location="vtkDataArray" length="2">
            <Value index="0">
              0.0094138147064
            </Value>
            <Value index="1">
              0.056468345105
            </Value>
          </InformationKey>
        </DataArray>
      </Points>
      <Verts>
        <DataArray type="Int64" Name="connectivity" format="ascii" RangeMin="1e+299" RangeMax="-1e+299">
        </DataArray>
        <DataArray type="Int64" Name="offsets" format="ascii" RangeMin="1e+299" RangeMax="-1e+299">
        </DataArray>
      </Verts>
      <Lines>
        <DataArray type="Int64" Name="connectivity" format="ascii" RangeMin="1e+299" RangeMax="-1e+299">
        </DataArray>
        <DataArray type="Int64" Name="offsets" format="ascii" RangeMin="1e+299" RangeMax="-1e+299">
        </DataArray>
      </Lines>
      <Strips>
        <DataArray type="Int64" Name="connectivity" format="ascii" RangeMin="1e+299" RangeMax="-1e+299">
        </DataArray>
        <DataArray type="Int64" Name="offsets" format="ascii" RangeMin="1e+299" RangeMax="-1e+299">
        </DataArray>
      </Strips>
      <Polys>
        <DataArray type="Int32" Name="connectivity" format="ascii" RangeMin="0" RangeMax="211">
          0 1 2 0 3 1
          0 4 3 0 5 6
          6 7 0 0 7 8
          8 4 0 2 9 0
          9 10 0 10 11 0
          12 5 0 0 13 12
          14 13 0 0 11 14
          2 1 15 15 1 3
          16 2 15 17 9 2
          17 2 16 18 15 3
          18 3 4 19 18 4
          19 4 8 20 6 5
          21 20 5 5 12 22
          5 22 21 6 20 7
          7 23 24 8 7 24
          25 23 7 20 25 7
          24 19 8 10 9 17
          10 17 26 11 10 26