<?xml version="1.0"?>
<VTKFile type="PolyData" version="0.1" byte_order="LittleEndian" header_type="UInt32" compressor="vtkZLibDataCompressor">
  <PolyData>
    <Piece NumberOfPoints="212" NumberOfVerts="0" NumberOfLines="0" NumberOfStrips="0" NumberOfPolys="424">
      <PointData Normals="Normals">
        <DataArray type="Float32" Name="Normals" NumberOfComponents="3" format="ascii" RangeMin="0.9999994648668811" RangeMax="1.000000633149469">
          0.17401599884033203 -0.9847429990768433 0 0.5618360042572021 -0.8005549907684326 -0.2084520012140274
          0.79756098985672 -0.6032389998435974 0 0.6799970269203186 -0.5024139881134033 -0.534026026725769
          0.3731650114059448 -0.30155301094055176 -0.8773900270462036 -0.8364179730415344 -0.5480920076370239 0
          -0.6116480231285095 -0.7909389734268188 0.017371999099850655 -0.8336970210075378 -0.4754070043563843 -0.28095799684524536
          -0.2185550034046173 -0.3328700065612793 -0.9172959923744202 0.5618360042572021 -0.8005549907684326 0.2084520012140274
          0.6799970269203186 -0.5024139881134033 0.534026026725769 0.3731650114059448 -0.30155301094055176 0.8773900270462036
          -0.6116480231285095 -0.7909389734268188 -0.017371999099850655 -0.8336970210075378 -0.4754070043563843 0.28095799684524536
          -0.2185550034046173 -0.3328700065612793 0.9172959923744202 0.9634039998054504 0.08349499851465225 -0.25471898913383484
          0.9997310042381287 0.023182999342679977 0 0.9634039998054504 0.08349499851465225 0.25471898913383484
          0.5492479801177979 0.39944401383399963 -0.7340099811553955 0.15370500087738037 0.355800986289978 -0.9218350052833557
          -0.9813060164451599 -0.17902199923992157 0.07063300162553787 -0.990435004234314 -0.13798299431800842 0
          -0.9813060164451599 -0.17902199923992157 -0.07063300162553787 -0.785565972328186 -0.23677100241184235 -0.5716860294342041
          -0.4046129882335663 0.2401130050420761 -0.8824030160903931 -0.9596269726753235 -0.25501298904418945 0.1186790019273758
          0.5492479801177979 0.39944401383399963 0.7340099811553955 0.15370500087738037 0.355800986289978 0.9218350052833557
          -0.4046120047569275 0.24010899662971497 0.8824040293693542 -0.785565972328186 -0.23677299916744232 0.5716850161552429
          -0.9596269726753235 -0.25501200556755066 -0.1186780035495758 0.8593339920043945 0.3303680121898651 -0.39038699865341187
          0.9384080171585083 0.3455280065536499 0 0.8593339920043945 0.3303680121898651 0.39038699865341187
          0.5639209747314453 0.24869899451732635 -0.7874910235404968 0.17542099952697754 0.15935300290584564 -0.9715110063552856
          -0.9195290207862854 -0.28889200091362 0.26647400856018066 -0.9415379762649536 -0.3369080126285553 0
          -0.9195290207862854 -0.2888930141925812 -0.2664709985256195 -0.001661999966017902 -0.6024019718170166 -0.7981910109519958
          -0.0840660035610199 -0.08137600123882294 -0.9931319952011108 -0.5935850143432617 -0.6569610238075256 0.464821994304657
          0.5639209747314453 0.24869899451732635 0.7874910235404968 0.1754239946603775 0.15935100615024567 0.9715110063552856
          -0.08406999707221985 -0.08137399703264236 0.9931319952011108 -0.0016680000117048621 -0.602400004863739 0.798192024230957
          -0.5935840010643005 -0.6569650173187256 -0.46481800079345703 0.922137975692749 0.06127699837088585 -0.38197699189186096
          0.9888790249824524 0.1487250030040741 0 0.922137975692749 0.06127699837088585 0.38197699189186096
          0.5999680161476135 -0.10720899701118469 -0.7928079962730408 0.2722649872303009 -0.212786003947258 -0.9383999705314636
          -0.9183740019798279 -0.28887999057769775 0.270440012216568 -0.38839098811149597 -0.09307699650526047 0.916782021522522
          -0.9632859826087952 -0.2684769928455353 0 -0.9183740019798279 -0.28887999057769775 -0.270440012216568
          -0.38839098811149597 -0.09308300167322159 -0.9167810082435608 0.1413549929857254 0.008922000415623188 -0.9899190068244934
          0.0730379968881607 -0.26754701137542725 -0.9607729911804199 0.038210999220609665 -0.7640650272369385 -0.6440070271492004
          0.19212700426578522 -0.9462230205535889 -0.26028698682785034 0.6205450296401978 -0.31328698992729187 -0.718870997428894
          0.6568390130996704 0.32193899154663086 0.6818490028381348 0.5999680161476135 -0.10720899701118469 0.7928079962730408
          0.2722660005092621 -0.21278299391269684 0.9383999705314636 0.07303400337696075 -0.2675420045852661 0.9607740044593811
          0.1413549929857254 0.008922000415623188 0.9899190068244934 0.1921280026435852 -0.9462230205535889 0.26028600335121155
          0.038210999220609665 -0.7640650272369385 0.6440070271492004 0.6205450296401978 -0.31328698992729187 0.718870997428894
          0.6568400263786316 0.3219369947910309 -0.6818479895591736 0.9446899890899658 0.027643000707030296 -0.3267970085144043
          0.9968289732933044 0.07957500219345093 0 0.9446899890899658 0.027643000707030296 0.3267970085144043
          0.6281269788742065 -0.09468799829483032 -0.7723280191421509 0.2441910058259964 -0.250669002532959 -0.9367690086364746
          -0.6000049710273743 0.6958500146865845 0.39469900727272034 -0.1899529993534088 -0.05762200057506561 0.9801009893417358
          -0.8256649971008301 0.5641610026359558 0 -0.6000049710273743 0.6958500146865845 -0.39469900727272034
          -0.1899529993534088 -0.05762200057506561 -0.9801009893417358 -0.22634799778461456 0.16789400577545166 -0.9594680070877075
          -0.040435999631881714 -0.1906449943780899 -0.9808260202407837 0.2711789906024933 0.7400299906730652 -0.615481972694397
          -0.34241101145744324 -0.7047560214996338 -0.6213480234146118 -0.5799090266227722 -0.4463460147380829 -0.6815279722213745
          -0.24887099862098694 -0.8565559983253479 -0.45207899808883667 0.8935499787330627 -0.15044300258159637 -0.423007994890213
          0.05729300156235695 -0.9926379919052124 -0.10671000182628632 0.7701560258865356 0.1862040013074875 -0.6100720167160034
          0.9144139885902405 0.021949000656604767 0.4041849970817566 0.884967029094696 0.46565499901771545 0
          -0.6281710267066956 0.7780759930610657 0 -0.477728009223938 0.39514899253845215 0.7846230268478394
          0.6281269788742065 -0.09468799829483032 0.7723280191421509 0.2441910058259964 -0.250669002532959 0.9367690086364746
          -0.040435999631881714 -0.1906449943780899 0.9808260202407837 -0.22634799778461456 0.16789400577545166 0.9594680070877075
          0.2711789906024933 0.7400299906730652 0.615481972694397 -0.5799059867858887 -0.4463450014591217 0.6815310120582581
          -0.34240999817848206 -0.7047569751739502 0.6213480234146118 -0.24887099862098694 -0.8565559983253479 0.45207899808883667
          0.8935499787330627 -0.15044300258159637 0.423007994890213 0.7701560258865356 0.1862040013074875 0.6100720167160034
          0.05729300156235695 -0.9926379919052124 0.10671000182628632 0.9144139885902405 0.021949000656604767 -0.4041849970817566
          -0.477728009223938 0.39514899253845215 -0.7846230268478394 0.5840089917182922 0.7259929776191711 -0.3631359934806824
          0.7557089924812317 0.6549069881439209 0 0.5840089917182922 0.7259929776191711 0.3631359934806824
          0.2787359952926636 0.7867869734764099 -0.5507019758224487 0.1106100007891655 0.5368490219116211 -0.8363959789276123
          -0.23142799735069275 0.42111799120903015 -0.8769840002059937 0.1128230020403862 0.9129170179367065 -0.39224299788475037
          -0.18838199973106384 0.9612119793891907 0.20145699381828308 -0.6715480089187622 0.46591201424598694 0.5761510133743286
          -0.2250480055809021 0.9743480086326599 0 -0.38206198811531067 0.8271560072898865 -0.41211798787117004
          -0.18838199973106384 0.9612119793891907 -0.20145699381828308 0.1128230020403862 0.9129170179367065 0.39224299788475037
          -0.6715480089187622 0.46591201424598694 -0.5761510133743286 -0.38206198811531067 0.8271560072898865 0.41211798787117004
          -0.37850698828697205 0.6913449764251709 -0.6154469847679138 0.2537899911403656 0.8079149723052979 -0.5318490266799927
          -0.04237800091505051 0.006378000136464834 -0.999081015586853 -0.857276976108551 0.05962099879980087 -0.5113919973373413
          -0.31742700934410095 -0.6363679766654968 -0.7030479907989502 -0.5695189833641052 -0.5516589879989624 0.6093609929084778
          -0.9347990155220032 -0.039785001426935196 0.35294198989868164 -0.2073190063238144 0.5620729923248291 -0.8006830215454102
          -0.39157599210739136 0.5491650104522705 -0.7383000254631042 0.9712169766426086 0.0003150000120513141 -0.23819699883460999
          0.013345999643206596 0.11843100190162659 -0.9928730130195618 -0.6571580171585083 -0.7299119830131531 -0.18807299435138702
          0.3187670111656189 -0.10756999999284744 -0.9417089819908142 -0.9771209955215454 0.03310700133442879 0.21009300649166107
          0.8700870275497437 -0.1781740039587021 0.45956701040267944 0.9822019934654236 -0.18782800436019897 0
          -0.6103399991989136 0.48289400339126587 -0.6279320120811462 -0.7956349849700928 0.6057760119438171 0
          -0.9118880033493042 0.34681999683380127 -0.2194889932870865 -0.9568049907684326 0.19619600474834442 0.21455100178718567
          -0.6103399991989136 0.48289400339126587 0.6279320120811462 -0.9118880033493042 0.34681999683380127 0.2194889932870865
          -0.9568049907684326 0.19619600474834442 -0.21455100178718567 -0.7635499835014343 0.21342700719833374 0.6094589829444885
          0.2787359952926636 0.7867869734764099 0.5507019758224487 0.1106100007891655 0.5368490219116211 0.8363959789276123
          -0.23142799735069275 0.42111799120903015 0.8769840002059937 -0.37850698828697205 0.6913449764251709 0.6154469847679138
          0.2537899911403656 0.8079149723052979 0.5318490266799927 -0.2073179930448532 0.5620750188827515 0.800682008266449
          -0.31742799282073975 -0.6363649964332581 0.7030500173568726 -0.39157599210739136 0.5491650104522705 0.7383000254631042
          -0.857276976108551 0.05962099879980087 0.5113919973373413 -0.04237800091505051 0.006378000136464834 0.999081015586853
          -0.5695189833641052 -0.5516589879989624 -0.6093609929084778 -0.9347990155220032 -0.039785001426935196 -0.35294198989868164
          0.9712169766426086 0.0003150000120513141 0.23819699883460999 0.013345999643206596 0.11843100190162659 0.9928730130195618
          0.3187670111656189 -0.10756999999284744 0.9417089819908142 -0.6571580171585083 -0.7299119830131531 0.18807299435138702
          -0.9771209955215454 0.03310700133442879 -0.21009300649166107 0.8700870275497437 -0.1781740039587021 -0.45956701040267944
          -0.7635499835014343 0.21342700719833374 -0.6094589829444885 -0.7678560018539429 0.341497004032135 0.5420129895210266
          -0.37400001287460327 0.2180050015449524 0.9014419913291931 -0.7678560018539429 0.341497004032135 -0.5420129895210266
          -0.37400001287460327 0.2180050015449524 -0.9014419913291931 -0.6591590046882629 -0.5587220191955566 -0.5033289790153503
          -0.7624279856681824 0.07405500113964081 -0.6428210139274597 -0.7444639801979065 -0.5716559886932373 -0.3449389934539795
          -0.8907780051231384 0.3416930139064789 -0.2996000051498413 -0.644008994102478 -0.014666999690234661 -0.7648770213127136
          -0.7513059973716736 -0.6547769904136658 -0.08249899744987488 0.6638020277023315 -0.7324770092964172 -0.15114499628543854
          0.5406129956245422 -0.7029770016670227 0.4621259868144989 0.9028570055961609 -0.42993998527526855 0
          0.5406129956245422 -0.7029770016670227 -0.4621259868144989 -0.6487339735031128 0.33189699053764343 -0.6848270297050476
          -0.5906199812889099 0.26809999346733093 -0.7611110210418701 -0.8474400043487549 0.5308910012245178 0
          -0.6487339735031128 0.33189699053764343 0.6848270297050476 -0.5906199812889099 0.26809999346733093 0.7611110210418701
          -0.8907780051231384 0.3416930139064789 0.2996000051498413 -0.644012987613678 -0.014662999659776688 0.7648739814758301
          -0.7513089776039124 -0.6547750234603882 0.0824970006942749 -0.7624279856681824 0.07405500113964081 0.6428210139274597
          -0.6591590046882629 -0.5587220191955566 0.5033289790153503 -0.7444639801979065 -0.5716559886932373 0.3449389934539795
          0.6638020277023315 -0.7324770092964172 0.15114499628543854 -0.40761101245880127 -0.0650700032711029 -0.910834014415741
          -0.2593809962272644 -0.9545639753341675 0.14672599732875824 0.006775999907404184 -0.7246649861335754 -0.6890680193901062
          0.5575720071792603 -0.8301290273666382 0 -0.2593809962272644 -0.9545639753341675 -0.14672599732875824
          0.006777000147849321 -0.7246659994125366 0.689067006111145 -0.9159219861030579 0.4013569951057434 -0.0000019999999949504854
          -0.4076089859008789 -0.06506700068712234 0.9108359813690186 -0.06919699907302856 0.17493699491024017 -0.9821450114250183
          -0.017086999490857124 -0.08645600080490112 -0.9961090087890625 0.2568269968032837 -0.5734840035438538 -0.7779179811477661
          0.13874900341033936 -0.9903280138969421 0 0.2568320035934448 -0.5734859704971313 0.7779139876365662
          -0.017071999609470367 -0.0864579975605011 0.9961090087890625 -0.7274190187454224 -0.21302999556064606 -0.652288019657135
          -0.8303800225257874 -0.5571979880332947 0 -0.7274209856987 -0.21303200721740723 0.6522849798202515
          -0.06919100135564804 0.17493599653244019 0.9821460247039795 -0.19082799553871155 -0.6631379723548889 -0.7237629890441895
          -0.5380430221557617 -0.8429170250892639 0 -0.1908310055732727 -0.6631410121917725 0.7237600088119507
          <InformationKey name="L2_NORM_RANGE" location="vtkDataArray" length="2">
            <Value index="0">
              0.99999946487
            </Value>
            <Value index="1">
              1.0000006331
            </Value>
          </InformationKey>
        </DataArray>
      </PointData>
      <CellData>
      </CellData>
      <Points>
        <DataArray type="Float32" Name="Points" NumberOfComponents="3" format="ascii" RangeMin="0.009269713533136026" RangeMax="0.058182492718360596">
          0.0017079999670386314 0.00911100022494793 0 0.016093000769615173 0.014008999802172184 -0.00926200021058321
          0.014419999904930592 0.009709999896585941 0 0.011123999953269958 0.013167999684810638 -0.018953999504446983
          0.0033229999244213104 0.010944999754428864 -0.023672999814152718 -0.016178999096155167 0.007269999943673611 0
          -0.016002999618649483 0.006914000026881695 -0.005561999976634979 -0.016450000926852226 0.007199999876320362 -0.01647699996829033
          -0.011246999725699425 0.00967899989336729 -0.02381099946796894 0.016093000769615173 0.014008999802172184 0.00926200021058321
          0.011123999953269958 0.013167999684810638 0.018953999504446983 0.0033229999244213104 0.010944999754428864 0.023672999814152718
          -0.016002999618649483 0.006914000026881695 0.005561999976634979 -0.016450000926852226 0.007199999876320362 0.01647699996829033
          -0.011246999725699425 0.00967899989336729 0.02381099946796894 0.016565000638365746 0.015332000330090523 -0.011123999953269958
          0.016311999410390854 0.016029000282287598 0 0.016565000638365746 0.015332000330090523 0.011123999953269958
          0.009699000045657158 0.016054000705480576 -0.01830499991774559 0.0008960000122897327 0.016683999449014664 -0.022254999727010727
          -0.016837000846862793 0.012966999784111977 -0.00520299980416894 -0.01677200011909008 0.012823999859392643 0
          -0.016837000846862793 0.012966999784111977 0.00520299980416894 -0.01721999980509281 0.01486200001090765 -0.016824999824166298
          -0.010352999903261662 0.013082999736070633 -0.022422000765800476 -0.018185999244451523 0.014360999688506126 -0.009933999739587307
          0.009699000045657158 0.016054000705480576 0.01830499991774559 0.0008960000122897327 0.016683999449014664 0.022254999727010727
          -0.010352999903261662 0.013082999736070633 0.022422000765800476 -0.01721999980509281 0.01486200001090765 0.016824999824166298
          -0.018185999244451523 0.014360999688506126 0.009933999739587307 0.012973000295460224 0.021389000117778778 -0.01082799956202507
          0.014479000121355057 0.021261999383568764 0 0.012973000295460224 0.021389000117778778 0.01082799956202507
          0.006976999808102846 0.02126000076532364 -0.0178459994494915 -0.0001320000010309741 0.021650999784469604 -0.0202380008995533
          -0.01819000020623207 0.020037999376654625 -0.006682000122964382 -0.017673999071121216 0.020214999094605446 0
          -0.01819000020623207 0.020037999376654625 0.006682000122964382 -0.016612999141216278 0.018818000331521034 -0.020061999559402466
          -0.010672999545931816 0.02071099914610386 -0.02121499925851822 -0.0203000009059906 0.02014799974858761 -0.010250000283122063
          0.006976999808102846 0.02126000076532364 0.0178459994494915 -0.0001320000010309741 0.021650999784469604 0.0202380008995533
          -0.010672999545931816 0.02071099914610386 0.02121499925851822 -0.016612999141216278 0.018818000331521034 0.020061999559402466
          -0.0203000009059906 0.02014799974858761 0.010250000283122063 0.011142999865114689 0.031076999381184578 -0.010444000363349915
          0.012369000352919102 0.03276799991726875 0 0.011142999865114689 0.031076999381184578 0.010444000363349915
          0.0047900001518428326 0.029989000409841537 -0.018532000482082367 -0.0004729999927803874 0.02871200069785118 -0.02032800018787384
          -0.021570999175310135 0.026631999760866165 -0.006903999950736761 -0.023777000606060028 0.02656099945306778 -0.010716999880969524
          -0.02082500047981739 0.02696000039577484 0 -0.021570999175310135 0.026631999760866165 0.006903999950736761
          -0.023777000606060028 0.02656099945306778 0.010716999880969524 -0.016645999625325203 0.025980999693274498 -0.02178500033915043
          -0.011343000456690788 0.026220999658107758 -0.021364999935030937 -0.020642999559640884 0.02062400057911873 -0.022166000679135323
          -0.023009000346064568 0.016550999134778976 -0.018073000013828278 -0.023552000522613525 0.023907000198960304 -0.026512999087572098
          -0.029594000428915024 0.02045699954032898 -0.003907000180333853 0.0047900001518428326 0.029989000409841537 0.018532000482082367
          -0.0004729999927803874 0.02871200069785118 0.02032800018787384 -0.011343000456690788 0.026220999658107758 0.021364999935030937
          -0.016645999625325203 0.025980999693274498 0.02178500033915043 -0.023009000346064568 0.016550999134778976 0.018073000013828278
          -0.020642999559640884 0.02062400057911873 0.022166000679135323 -0.023552000522613525 0.023907000198960304 0.026512999087572098
          -0.029594000428915024 0.02045699954032898 0.003907000180333853 0.011463000439107418 0.0368259996175766 -0.01155799999833107
          0.012020999565720558 0.03745799884200096 0 0.011463000439107418 0.0368259996175766 0.01155799999833107
          0.006002000067383051 0.03487100079655647 -0.019617000594735146 -0.0004189999890513718 0.03249900043010712 -0.022482000291347504
          -0.023792000487446785 0.0347680002450943 -0.008813999593257904 -0.02420400083065033 0.03258100152015686 -0.011508000083267689
          -0.021818000823259354 0.034185998141765594 0 -0.023792000487446785 0.0347680002450943 0.008813999593257904
          -0.02420400083065033 0.03258100152015686 0.011508000083267689 -0.018716000020503998 0.030693000182509422 -0.021049000322818756
          -0.009970000013709068 0.03176499903202057 -0.02357500046491623 -0.025715000927448273 0.030301999300718307 -0.02110300026834011
          -0.030990000814199448 0.019550999626517296 -0.01817999966442585 -0.033629000186920166 0.024046000093221664 -0.024477999657392502
          -0.027132000774145126 0.017880000174045563 -0.026187000796198845 -0.024507999420166016 0.012900999747216702 -0.011123999953269958
          -0.028620000928640366 0.020162999629974365 -0.03064199909567833 -0.02772499993443489 0.023895999416708946 -0.033705998212099075
          -0.027087999507784843 0.007718000095337629 -0.005382999777793884 -0.029596000909805298 0.018758999183773994 0
          -0.038996998220682144 0.019991999492049217 0 -0.03299900144338608 0.026906000450253487 -0.008136999793350697
          0.006002000067383051 0.03487100079655647 0.019617000594735146 -0.0004189999890513718 0.03249900043010712 0.022482000291347504
          -0.009970000013709068 0.03176499903202057 0.02357500046491623 -0.018716000020503998 0.030693000182509422 0.021049000322818756
          -0.025715000927448273 0.030301999300718307 0.02110300026834011 -0.033629000186920166 0.024046000093221664 0.024477999657392502
          -0.030990000814199448 0.019550999626517296 0.01817999966442585 -0.027132000774145126 0.017880000174045563 0.026187000796198845
          -0.024507999420166016 0.012900999747216702 0.011123999953269958 -0.02772499993443489 0.023895999416708946 0.033705998212099075
          -0.028620000928640366 0.020162999629974365 0.03064199909567833 -0.027087999507784843 0.007718000095337629 0.005382999777793884
          -0.03299900144338608 0.026906000450253487 0.008136999793350697 0.01001999992877245 0.04197800159454346 -0.011769999749958515
          0.010847000405192375 0.042486999183893204 0 0.01001999992877245 0.04197800159454346 0.011769999749958515
          0.0047149998135864735 0.04031899943947792 -0.01988700032234192 -0.002753000007942319 0.0385500006377697 -0.023569000884890556
          -0.012263000011444092 0.03548600152134895 -0.023722000420093536 -0.025822000578045845 0.03245500102639198 -0.014901000075042248
          -0.033312998712062836 0.03771499916911125 -0.01691400073468685 -0.03260599821805954 0.03466099873185158 -0.010619999840855598
          -0.005485000088810921 0.03833699971437454 0 -0.02165300026535988 0.034758999943733215 -0.018093999475240707
          -0.033312998712062836 0.03771499916911125 0.01691400073468685 -0.025822000578045845 0.03245500102639198 0.014901000075042248
          -0.03260599821805954 0.03466099873185158 0.010619999840855598 -0.02165300026535988 0.034758999943733215 0.018093999475240707
          -0.031120000407099724 0.029676999896764755 -0.03007899969816208 -0.030608000233769417 0.03346899896860123 -0.019454000517725945
          -0.03285700082778931 0.01152000017464161 -0.01637200079858303 -0.037271998822689056 0.008741999976336956 -0.013371000066399574
          -0.03951700031757355 0.02459999918937683 -0.022324999794363976 -0.03980899974703789 0.023044999688863754 -0.014991000294685364
          -0.03722900152206421 0.021927999332547188 -0.013403000310063362 -0.040800999850034714 0.03441900014877319 -0.02059900015592575
          -0.03450499847531319 0.030820999294519424 -0.022512000054121017 -0.024320999160408974 0.005621000193059444 -0.012679999694228172
          -0.03640900179743767 0.0041589997708797455 -0.0180440004914999 -0.03324100002646446 0.020538000389933586 -0.03400399908423424
          -0.031890999525785446 0.023415999487042427 -0.03728900104761124 -0.03555399924516678 0.028416000306606293 -0.034481000155210495
          -0.02635899931192398 0.001829999964684248 -0.007067999802529812 -0.03055799938738346 0.008194000460207462 0
          -0.039531998336315155 0.015696000307798386 -0.0052189999260008335 -0.047579001635313034 0.00991399958729744 0
          -0.03520800173282623 0.015355000272393227 -0.008762000128626823 -0.03590400144457817 0.02030700072646141 -0.010989000089466572
          -0.039531998336315155 0.015696000307798386 0.0052189999260008335 -0.03520800173282623 0.015355000272393227 0.008762000128626823
          -0.03590400144457817 0.02030700072646141 0.010989000089466572 -0.034244000911712646 0.02725899964570999 -0.011990999802947044
          0.0047149998135864735 0.04031899943947792 0.01988700032234192 -0.002753000007942319 0.0385500006377697 0.023569000884890556
          -0.012263000011444092 0.03548600152134895 0.023722000420093536 -0.031120000407099724 0.029676999896764755 0.03007899969816208
          -0.030608000233769417 0.03346899896860123 0.019454000517725945 -0.040800999850034714 0.03441900014877319 0.02059900015592575
          -0.03951700031757355 0.02459999918937683 0.022324999794363976 -0.03450499847531319 0.030820999294519424 0.022512000054121017
          -0.037271998822689056 0.008741999976336956 0.013371000066399574 -0.03285700082778931 0.01152000017464161 0.01637200079858303
          -0.03980899974703789 0.023044999688863754 0.014991000294685364 -0.03722900152206421 0.021927999332547188 0.013403000310063362
          -0.024320999160408974 0.005621000193059444 0.012679999694228172 -0.03640900179743767 0.0041589997708797455 0.0180440004914999
          -0.031890999525785446 0.023415999487042427 0.03728900104761124 -0.03324100002646446 0.020538000389933586 0.03400399908423424
          -0.03555399924516678 0.028416000306606293 0.034481000155210495 -0.02635899931192398 0.001829999964684248 0.007067999802529812
          -0.034244000911712646 0.02725899964570999 0.011990999802947044 -0.04623100161552429 0.02958099916577339 -0.017263000831007957
          -0.03874500095844269 0.028454000130295753 -0.014720000326633453 -0.04623100161552429 0.02958099916577339 0.017263000831007957
          -0.03874500095844269 0.028454000130295753 0.014720000326633453 -0.038816001266241074 -0.00017699999443721026 -0.010266999714076519
          -0.03937000036239624 0.004993000067770481 -0.010850000195205212 -0.03524500131607056 -0.0033279999624937773 -0.017789000645279884
          -0.037466999143362045 0.011129000224173069 -0.009348000399768353 -0.04403499886393547 0.028310000896453857 -0.022833000868558884
          -0.04556399956345558 0.02529899962246418 -0.017735999077558517 -0.02657799981534481 -0.007195000071078539 -0.014089999720454216
          -0.028793999925255775 -0.0013510000426322222 -0.005613999906927347 -0.03247300162911415 0.0016899999463930726 0
          -0.028793999925255775 -0.0013510000426322222 0.005613999906927347 -0.04291300103068352 0.01003399956971407 -0.004406000021845102
          -0.04557099938392639 0.0050650001503527164 -0.004288999829441309 -0.056804999709129333 0.00459099980071187 0
          -0.04291300103068352 0.01003399956971407 0.004406000021845102 -0.04557099938392639 0.0050650001503527164 0.004288999829441309
          -0.037466999143362045 0.011129000224173069 0.009348000399768353 -0.04403499886393547 0.028310000896453857 0.022833000868558884
          -0.04556399956345558 0.02529899962246418 0.017735999077558517 -0.03937000036239624 0.004993000067770481 0.010850000195205212
          -0.038816001266241074 -0.00017699999443721026 0.010266999714076519 -0.03524500131607056 -0.0033279999624937773 0.017789000645279884
          -0.02657799981534481 -0.007195000071078539 0.014089999720454216 -0.04506000131368637 0.00015199999324977398 -0.004478000104427338
          -0.034276001155376434 -0.002449000021442771 -0.008067999966442585 -0.03993799909949303 -0.0020840000361204147 -0.005253000184893608
          -0.03895999863743782 -0.00763599993661046 0 -0.034276001155376434 -0.002449000021442771 0.008067999966442585
          -0.03993799909949303 -0.0020840000361204147 0.005253000184893608 -0.05817199870944023 -0.0011050000321120024 0
          -0.04506000131368637 0.00015199999324977398 0.004478000104427338 -0.0483429990708828 -0.00406099995598197 -0.004879999905824661
          -0.044550999999046326 -0.005948999896645546 -0.004896999802440405 -0.04530499875545502 -0.01049800030887127 -0.00380200007930398
          -0.04711899906396866 -0.011618000455200672 0 -0.04530499875545502 -0.01049800030887127 0.00380200007930398
          -0.04455000162124634 -0.005948999896645546 0.004896999802440405 -0.05534899979829788 -0.006049999967217445 -0.004941000137478113
          -0.056040000170469284 -0.00785600021481514 0 -0.05534899979829788 -0.006049999967217445 0.004941000137478113
          -0.0483429990708828 -0.00406099995598197 0.004879999905824661 -0.052880000323057175 -0.009661000221967697 -0.005756999831646681
          -0.051513999700546265 -0.01154400035738945 0 -0.052880000323057175 -0.009661000221967697 0.005756999831646681
          <InformationKey name="L2_NORM_RANGE" location="vtkDataArray" length="2">
            <Value index="0">
              0.0092697135331
            </Value>
            <Value index="1">
              0.058182492718
            </Value>
          </InformationKey>
        </DataArray>
      </Points>
      <Verts>
        <DataArray type="Int64" Name="connectivity" format="ascii" RangeMin="1e+299" RangeMax="-1e+299">
        </DataArray>
        <DataArray type="Int64" Name="offsets" format="ascii" RangeMin="1e+299" RangeMax="-1e+299">
        </DataArray>
      </Verts>
      <Lines>
        <DataArray type="Int64" Name="connectivity" format="ascii" RangeMin="1e+299" RangeMax="-1e+299">
        </DataArray>
        <DataArray type="Int64" Name="offsets" format="ascii" RangeMin="1e+299" RangeMax="-1e+299">
        </DataArray>
      </Lines>
      <Strips>
        <DataArray type="Int64" Name="connectivity" format="ascii" RangeMin="1e+299" RangeMax="-1e+299">
        </DataArray>
        <DataArray type="Int64" Name="offsets" format="ascii" RangeMin="1e+299" RangeMax="-1e+299">
        </DataArray>
      </Strips>
      <Polys>
        <DataArray type="Int32" Name="connectivity" format="ascii" RangeMin="0" RangeMax="211">
          0 1 2 0 3 1
          0 4 3 0 5 6
          6 7 0 0 7 8
          8 4 0 2 9 0
          9 10 0 10 11 0
          12 5 0 0 13 12
          14 13 0 0 11 14
          2 1 15 15 1 3
          16 2 15 17 9 2
          17 2 16 18 15 3
          18 3 4 19 18 4
          19 4 8 20 6 5
          21 20 5 5 12 22
          5 22 21 6 20 7
          7 23 24 8 7 24
          25 23 7 20 25 7
          24 19 8 10 9 17
          10 17 26 11 10 26