<?xml version="1.0"?>
<VTKFile type="PolyData" version="0.1" byte_order="LittleEndian" header_type="UInt32" compressor="vtkZLibDataCompressor">
  <PolyData>
    <Piece NumberOfPoints="212" NumberOfVerts="0" NumberOfLines="0" NumberOfStrips="0" NumberOfPolys="424">
      <PointData Normals="Normals">
        <DataArray type="Float32" Name="Normals" NumberOfComponents="3" format="ascii" RangeMin="0.9999993293935504" RangeMax="1.0000006033817386">
          -0.2970860004425049 -0.954850971698761 0 0.06903599947690964 -0.9666829705238342 -0.24649100005626678
          0.42962101101875305 -0.9030089974403381 0 0.5176270008087158 -0.7083719968795776 -0.47986599802970886
          0.41642698645591736 -0.4355350136756897 -0.7980589866638184 -0.9671710133552551 -0.25412699580192566 0
          -0.8688430190086365 -0.4947899878025055 0.017173999920487404 -0.9558389782905579 -0.1398790031671524 -0.25846999883651733
          -0.363070011138916 0.04416000097990036 -0.930715024471283 0.06903599947690964 -0.9666829705238342 0.24649100005626678
          0.5176270008087158 -0.7083719968795776 0.47986599802970886 0.41642698645591736 -0.4355350136756897 0.7980589866638184
          -0.8688430190086365 -0.4947899878025055 -0.017173999920487404 -0.9558389782905579 -0.1398790031671524 0.25846999883651733
          -0.363070011138916 0.04416000097990036 0.930715024471283 0.8959710001945496 -0.343282014131546 -0.2817690074443817
          0.993270993232727 -0.11581700295209885 0 0.8959710001945496 -0.343282014131546 0.2817690074443817
          0.7471010088920593 -0.06289900094270706 -0.661728024482727 0.3988040089607239 0.2576889991760254 -0.8800860047340393
          -0.9897850155830383 0.12798400223255157 0.06281200051307678 -0.976705014705658 0.21458700299263 0
          -0.9897850155830383 0.12798400223255157 -0.06281200051307678 -0.8214600086212158 0.061089999973773956 -0.566985011100769
          -0.23282800614833832 0.507157027721405 -0.8298090100288391 -0.9895439743995667 0.09564699977636337 0.1079540029168129
          0.7471010088920593 -0.06289900094270706 0.661728024482727 0.3988040089607239 0.2576889991760254 0.8800860047340393
          -0.23282800614833832 0.507157027721405 0.8298090100288391 -0.8214600086212158 0.061089999973773956 0.566985011100769
          -0.9895439743995667 0.09564699977636337 -0.1079540029168129 0.935213029384613 -0.22540900111198425 -0.2730720043182373
          0.9900820255279541 -0.14049400389194489 0 0.935213029384613 -0.22540900111198425 0.2730720043182373
          0.6846169829368591 -0.18682600557804108 -0.70455402135849 0.22672900557518005 0.07735899835824966 -0.9708809852600098
          -0.9591540098190308 0.09374699741601944 0.2668980062007904 -0.9982969760894775 0.058334000408649445 0
          -0.9591540098190308 0.09374699741601944 -0.2668980062007904 -0.2594510018825531 -0.5477269887924194 -0.795412003993988
          -0.11149399727582932 -0.04096699878573418 -0.9929199814796448 -0.8106330037117004 -0.3657959997653961 0.45723798871040344
          0.6846169829368591 -0.18682600557804108 0.70455402135849 0.22672900557518005 0.07735899835824966 0.9708809852600098
          -0.11149399727582932 -0.04096699878573418 0.9929199814796448 -0.2594510018825531 -0.5477269887924194 0.795412003993988
          -0.8106330037117004 -0.3657959997653961 -0.45723798871040344 0.8536069989204407 -0.45162999629974365 -0.2595849931240082
          0.9139860272407532 -0.4057460129261017 0 0.8536069989204407 -0.45162999629974365 0.2595849931240082
          0.5396729707717896 -0.4087570011615753 -0.7359830141067505 0.1553030014038086 -0.3015640079975128 -0.9407129883766174
          -0.9577609896659851 0.09335699677467346 0.27198898792266846 -0.39228498935699463 0.0665929988026619 0.9174299836158752
          -0.991578996181488 0.12950299680233002 0 -0.9577609896659851 0.09335699677467346 -0.27198898792266846
          -0.39228498935699463 0.0665929988026619 -0.9174299836158752 0.13134999573230743 -0.04821600019931793 -0.9901630282402039
          -0.048958998173475266 -0.2729960083961487 -0.96076899766922 -0.2920660078525543 -0.7098659873008728 -0.6409270167350769
          -0.23687799274921417 -0.9475880265235901 -0.21439599990844727 0.43164101243019104 -0.5368779897689819 -0.7248780131340027
          0.7469390034675598 -0.013062000274658203 0.6647639870643616 0.5396729707717896 -0.4087570011615753 0.7359830141067505
          0.1553030014038086 -0.3015640079975128 0.9407129883766174 -0.048958998173475266 -0.2729960083961487 0.96076899766922
          0.13134999573230743 -0.04821699857711792 0.9901630282402039 -0.23687799274921417 -0.9475880265235901 0.21439599990844727
          -0.2920660078525543 -0.7098659873008728 0.6409270167350769 0.43164101243019104 -0.5368790030479431 0.7248769998550415
          0.7469390034675598 -0.013062000274658203 -0.6647639870643616 0.8866270184516907 -0.3486649990081787 -0.303849995136261
          0.8454020023345947 -0.5341299772262573 0 0.8866270184516907 -0.3486649990081787 0.303849995136261
          0.5543050169944763 -0.306984007358551 -0.7736319899559021 0.11359900236129761 -0.3251209855079651 -0.9388250112533569
          -0.2538059949874878 0.8792290091514587 0.40316200256347656 -0.19913999736309052 0.017847999930381775 0.9798089861869812
          -0.5207440257072449 0.8537129759788513 0 -0.2538059949874878 0.8792290091514587 -0.40316200256347656
          -0.19913999736309052 0.017847999930381775 -0.9798089861869812 -0.1332859992980957 0.24187499284744263 -0.9611089825630188
          -0.11839299649000168 -0.1584549993276596 -0.9802420139312744 0.5535770058631897 0.566972017288208 -0.6099969744682312
          -0.6238570213317871 -0.5234140157699585 -0.5803790092468262 -0.7113509774208069 -0.1774359941482544 -0.6800709962844849
          -0.573756992816925 -0.6834499835968018 -0.4513300061225891 0.7082160115242004 -0.6189119815826416 -0.3396730124950409
          -0.3634510040283203 -0.9248589873313904 -0.1119770035147667 0.7772960066795349 -0.13816200196743011 -0.6137760281562805
          0.8040509819984436 -0.4349690079689026 0.4053429961204529 0.9989690184593201 -0.04539500176906586 0
          -0.17773300409317017 0.9840790033340454 0 -0.2518500089645386 0.5719640254974365 0.780659019947052
          0.5543050169944763 -0.306984007358551 0.7736319899559021 0.11359900236129761 -0.3251209855079651 0.9388250112533569
          -0.11839299649000168 -0.1584549993276596 0.9802420139312744 -0.13328500092029572 0.24187499284744263 0.96110999584198
          0.5535749793052673 0.566972017288208 0.6099979877471924 -0.7113509774208069 -0.1774359941482544 0.6800709962844849
          -0.6238570213317871 -0.5234140157699585 0.5803790092468262 -0.573756992816925 -0.6834499835968018 0.4513300061225891
          0.7082160115242004 -0.6189119815826416 0.3396730124950409 0.7772949934005737 -0.1381639987230301 0.6137779951095581
          -0.3634510040283203 -0.9248589873313904 0.1119770035147667 0.8040509819984436 -0.4349690079689026 -0.4053429961204529
          -0.2518500089645386 0.5719640254974365 -0.780659019947052 0.7957379817962646 0.5250579714775085 -0.3018519878387451
          0.8705099821090698 0.4921509921550751 0 0.7957379817962646 0.5250579714775085 0.3018519878387451
          0.6154500246047974 0.6041290163993835 -0.50621098279953 0.3292120099067688 0.44515499472618103 -0.8327400088310242
          -0.029145000502467155 0.4753879904747009 -0.8792930245399475 0.4810590147972107 0.7867699861526489 -0.3867500126361847
          0.23283399641513824 0.9502919912338257 0.20671799778938293 -0.4195820093154907 0.6960330009460449 0.582656979560852
          0.21595799922943115 0.976402997970581 0 0.00784400012344122 0.9099509716033936 -0.41464200615882874
          0.23283399641513824 0.9502919912338257 -0.20671799778938293 0.48105698823928833 0.7867720127105713 0.38674798607826233
          -0.4195820093154907 0.6960330009460449 -0.582656979560852 0.00784400012344122 0.9099509716033936 0.41464298963546753
          -0.05840099975466728 0.7848359942436218 -0.6169450283050537 0.5675910115242004 0.633538007736206 -0.5258039832115173
          -0.03132199868559837 0.010125000029802322 -0.9994580149650574 -0.6805229783058167 0.5154799818992615 -0.5207380056381226
          -0.5529699921607971 -0.451447993516922 -0.7002990245819092 -0.7426819801330566 -0.27480098605155945 0.6106619834899902
          -0.8241119980812073 0.44014599919319153 0.3565250039100647 0.05126199871301651 0.5978490114212036 -0.7999680042266846
          -0.12278100103139877 0.6587030291557312 -0.7423179745674133 0.8638960123062134 -0.4607450067996979 -0.20346400141716003
          0.07293900102376938 0.12763600051403046 -0.9891350269317627 -0.8942700028419495 -0.40724900364875793 -0.18555299937725067
          0.23814600706100464 -0.22998499870300293 -0.943606972694397 -0.8852940201759338 0.4108560085296631 0.2178339958190918
          0.6548629999160767 -0.5885369777679443 0.4741089940071106 0.7545920014381409 -0.6561939716339111 0
          -0.34831398725509644 0.6906939744949341 -0.6337350010871887 -0.4817560017108917 0.8763049840927124 0
          -0.597786009311676 0.7668039798736572 -0.23380200564861298 -0.7187640070915222 0.6613439917564392 0.21448400616645813
          -0.34831398725509644 0.6906939744949341 0.6337350010871887 -0.597786009311676 0.7668039798736572 0.23380200564861298
          -0.7187640070915222 0.6613439917564392 -0.21448400616645813 -0.6087380051612854 0.4993630051612854 0.6165019869804382
          0.6154500246047974 0.6041290163993835 0.50621098279953 0.3292120099067688 0.44515499472618103 0.8327400088310242
          -0.029145000502467155 0.4753879904747009 0.8792930245399475 -0.058403000235557556 0.784837007522583 0.6169450283050537
          0.5675879716873169 0.633542001247406 0.5258030295372009 0.05126199871301651 0.5978490114212036 0.7999680042266846
          -0.5529699921607971 -0.451447993516922 0.7002990245819092 -0.12278100103139877 0.6587030291557312 0.7423179745674133
          -0.6805229783058167 0.5154799818992615 0.5207380056381226 -0.03132199868559837 0.010125000029802322 0.9994580149650574
          -0.7426819801330566 -0.27480098605155945 -0.6106619834899902 -0.8241119980812073 0.44014599919319153 -0.3565250039100647
          0.8638960123062134 -0.4607450067996979 0.20346400141716003 0.07293900102376938 0.12763600051403046 0.9891350269317627
          0.23814600706100464 -0.22998499870300293 0.943606972694397 -0.8942700028419495 -0.40724900364875793 0.18555299937725067
          -0.8852940201759338 0.4108560085296631 -0.2178339958190918 0.6548629999160767 -0.5885369777679443 -0.4741089940071106
          -0.6087380051612854 0.4993630051612854 -0.6165019869804382 -0.558102011680603 0.6239169836044312 0.5470370054244995
          -0.24552099406719208 0.3461169898509979 0.9054960012435913 -0.558102011680603 0.6239169836044312 -0.5470370054244995
          -0.24552099406719208 0.3461169898509979 -0.9054960012435913 -0.873058021068573 -0.21711499989032745 -0.4366140067577362
          -0.522163987159729 0.6209239959716797 -0.5846350193023682 -0.9166880249977112 -0.1439410001039505 -0.3727790117263794
          -0.5701280236244202 0.7627819776535034 -0.3051530122756958 -0.5925840139389038 0.24461700022220612 -0.7674679756164551
          -0.9511129856109619 -0.29839199781417847 -0.07965900003910065 0.24111899733543396 -0.9594320058822632 -0.14612600207328796
          0.026266999542713165 -0.8781790137290955 0.4776099920272827 0.27585700154304504 -0.9611989855766296 0
          0.026266999542713165 -0.8781790137290955 -0.4776099920272827 -0.4484820067882538 0.5660169720649719 -0.6917290091514587
          -0.3300020098686218 0.700206995010376 -0.6330950260162354 -0.37463000416755676 0.9271739721298218 0
          -0.4484820067882538 0.5660169720649719 0.6917290091514587 -0.3300020098686218 0.700206995010376 0.6330950260162354
          -0.5701280236244202 0.7627819776535034 0.3051530122756958 -0.5925840139389038 0.24461700022220612 0.7674679756164551
          -0.9511129856109619 -0.29839199781417847 0.07965900003910065 -0.522163987159729 0.6209239959716797 0.5846350193023682
          -0.873058021068573 -0.21711499989032745 0.4366140067577362 -0.9166880249977112 -0.1439410001039505 0.3727790117263794
          0.24111899733543396 -0.9594320058822632 0.14612600207328796 -0.39690399169921875 0.3450869917869568 -0.850517988204956
          -0.7025529742240906 -0.6696159839630127 0.24090200662612915 -0.43885698914527893 -0.7699120044708252 -0.4632920026779175
          -0.11252299696207047 -0.9936490058898926 0 -0.7025529742240906 -0.6696159839630127 -0.24090200662612915
          -0.43885698914527893 -0.7699120044708252 0.4632920026779175 -0.5813300013542175 0.8136680126190186 0
          -0.39690399169921875 0.3450869917869568 0.850517988204956 0.01673699915409088 0.28399398922920227 -0.9586799740791321
          -0.08190900087356567 -0.1282919943332672 -0.9883480072021484 0.0065830000676214695 -0.7564979791641235 -0.653963029384613
          -0.2463569939136505 -0.9691789746284485 9.999999974752427e-7 0.0065830000676214695 -0.7564979791641235 0.653963029384613
          -0.08190900087356567 -0.1282919943332672 0.9883480072021484 -0.810155987739563 0.1855809986591339 -0.5560640096664429
          -0.9777629971504211 -0.20971399545669556 0 -0.8101530075073242 0.18557099997997284 0.5560719966888428
          0.016738999634981155 0.28399500250816345 0.9586799740791321 -0.41746601462364197 -0.608735978603363 -0.6746569871902466
          -0.7944530248641968 -0.60732501745224 0.000004999999873689376 -0.41745901107788086 -0.6087380051612854 0.6746600270271301
          <InformationKey name="L2_NORM_RANGE" location="vtkDataArray" length="2">
            <Value index="0">
              0.99999932939
            </Value>
            <Value index="1">
              1.0000006034
            </Value>
          </InformationKey>
        </DataArray>
      </PointData>
      <CellData>
      </CellData>
      <Points>
        <DataArray type="Float32" Name="Points" NumberOfComponents="3" format="ascii" RangeMin="0.011912061800182097" RangeMax="0.05307336859148537">
          0.010402999818325043 0.005803000181913376 0 0.024133000522851944 0.0038060001097619534 -0.00927099958062172
          0.023094000294804573 0.0007200000109151006 0 0.01922599971294403 0.005191999953240156 -0.01897300034761429
          0.015007000416517258 0.005053000058978796 -0.02369699999690056 -0.003309000050649047 0.012044000439345837 0
          -0.003286000108346343 0.011642999947071075 -0.0055680000223219395 -0.0035860000643879175 0.012097000144422054 -0.016493000090122223
          0.0021780000533908606 0.012102000415325165 -0.02383499965071678 0.024133000522851944 0.0038060001097619534 0.00927099958062172
          0.01922599971294403 0.005191999953240156 0.01897300034761429 0.015007000416517258 0.005053000058978796 0.02369699999690056
          -0.003286000108346343 0.011642999947071075 0.0055680000223219395 -0.0035860000643879175 0.012097000144422054 0.016493000090122223
          0.0021780000533908606 0.012102000415325165 0.02383499965071678 0.025086000561714172 0.004805999808013439 -0.011134999804198742
          0.02512500062584877 0.0055519999004900455 0 0.025086000561714172 0.004805999808013439 0.011134999804198742
          0.018299000337719917 0.008559999987483025 -0.018324000760912895 0.01501299999654293 0.011332999914884567 -0.022276999428868294
          -0.0027830000035464764 0.01562800072133541 -0.00520800007507205 -0.002778999973088503 0.015468999743461609 0
          -0.0027830000035464764 0.01562800072133541 0.00520800007507205 -0.0023960000835359097 0.0175199992954731 -0.016840999945998192
          0.003237999975681305 0.012923999689519405 -0.022444000467658043 -0.0034809999633580446 0.017481999471783638 -0.009944000281393528
          0.018299000337719917 0.008559999987483025 0.018324000760912895 0.01501299999654293 0.011332999914884567 0.022276999428868294
          0.003237999975681305 0.012923999689519405 0.022444000467658043 -0.0023960000835359097 0.0175199992954731 0.016840999945998192
          -0.0034809999633580446 0.017481999471783638 0.009944000281393528 0.026472000405192375 0.011889999732375145 -0.010839000344276428
          0.02418000064790249 0.011207000352442265 0 0.026472000405192375 0.011889999732375145 0.010839000344276428
          0.02240700088441372 0.012868000194430351 -0.01786400005221367 0.016008000820875168 0.01630299910902977 -0.020258000120520592
          -0.0012659999774768949 0.022655000910162926 -0.006688999943435192 -0.0007210000185295939 0.022593999281525612 0
          -0.0012659999774768949 0.022655000910162926 0.006688999943435192 -0.00028899998869746923 0.020860999822616577 -0.020082000643014908
          0.005925999954342842 0.02001200057566166 -0.021237000823020935 -0.003166999900713563 0.023669999092817307 -0.010259999893605709
          0.02240700088441372 0.012868000194430351 0.01786400005221367 0.016008000820875168 0.01630299910902977 0.020258000120520592
          0.005925999954342842 0.02001200057566166 0.021237000823020935 -0.00028899998869746923 0.020860999822616577 0.020082000643014908
          -0.003166999900713563 0.023669999092817307 0.010259999893605709 0.026453999802470207 0.02009199932217598 -0.010455000214278698
          0.028245000168681145 0.021100999787449837 0 0.026453999802470207 0.02009199932217598 0.010455000214278698
          0.02380399964749813 0.02176699973642826 -0.018549999222159386 0.01845400035381317 0.022884000092744827 -0.020347999408841133
          -0.001803999999538064 0.030128000304102898 -0.006910999771207571 -0.003865000093355775 0.031019000336527824 -0.010727999731898308
          -0.0009879999561235309 0.03010299988090992 0 -0.001803999999538064 0.030128000304102898 0.006910999771207571
          -0.003865000093355775 0.031019000336527824 0.010727999731898308 0.002481000032275915 0.0274020005017519 -0.021807000041007996
          0.007462000008672476 0.02532299980521202 -0.021385999396443367 -0.0032969999592751265 0.024252999573946 -0.02218800038099289
          -0.007069999817758799 0.021567000076174736 -0.018091000616550446 -0.004695000126957893 0.02850399911403656 -0.02653999999165535
          -0.011611999943852425 0.027977000921964645 -0.003911000210791826 0.02380399964749813 0.02176699973642826 0.018549999222159386
          0.01845400035381317 0.022884000092744827 0.020347999408841133 0.007462000008672476 0.02532299980521202 0.021385999396443367
          0.002481000032275915 0.0274020005017519 0.021807000041007996 -0.007069999817758799 0.021567000076174736 0.018091000616550446
          -0.0032969999592751265 0.024252999573946 0.02218800038099289 -0.004695000126957893 0.02850399911403656 0.02653999999165535
          -0.011611999943852425 0.027977000921964645 0.003911000210791826 0.03262700140476227 0.025105999782681465 -0.01157000008970499
          0.03338799998164177 0.025439999997615814 0 0.03262700140476227 0.025105999782681465 0.01157000008970499
          0.026829000562429428 0.025690000504255295 -0.01963699981570244 0.01998399943113327 0.026311000809073448 -0.02250399999320507
          -0.0006699999794363976 0.03850200027227402 -0.008822999894618988 -0.0019049999536946416 0.036688998341560364 -0.01152000017464161
          0.0009219999774359167 0.03711799904704094 0 -0.0006699999794363976 0.03850200027227402 0.008822999894618988
          -0.0019049999536946416 0.036688998341560364 0.01152000017464161 0.00241499999538064 0.03259199857711792 -0.021069999784231186
          0.010894999839365482 0.02977900020778179 -0.02359900064766407 -0.004188000224530697 0.035266000777482986 -0.02112399972975254
          -0.013252999633550644 0.02775700017809868 -0.018198000267148018 -0.013927999883890152 0.03299500048160553 -0.024501999840140343
          -0.010350000113248825 0.024562999606132507 -0.02621299959719181 -0.01001300010830164 0.02163499966263771 -0.011134999804198742
          -0.010828999802470207 0.027287999168038368 -0.030672000721096992 -0.008545000106096268 0.03030100092291832 -0.03373999893665314
          -0.014418999664485455 0.01807199977338314 -0.005388000048696995 -0.012277999892830849 0.026430999860167503 0
          -0.020555000752210617 0.03357100114226341 0 -0.012230000458657742 0.03532800078392029 -0.008144999854266644
          0.026829000562429428 0.025690000504255295 0.01963699981570244 0.01998399943113327 0.026311000809073448 0.02250399999320507
          0.010894999839365482 0.02977900020778179 0.02359900064766407 0.00241499999538064 0.03259199857711792 0.021069999784231186
          -0.004188000224530697 0.035266000777482986 0.02112399972975254 -0.013927999883890152 0.03299500048160553 0.024501999840140343
          -0.013252999633550644 0.02775700017809868 0.018198000267148018 -0.010350000113248825 0.024562999606132507 0.02621299959719181
          -0.01001300010830164 0.02163499966263771 0.011134999804198742 -0.008545000106096268 0.03030100092291832 0.03373999893665314
          -0.010828999802470207 0.027287999168038368 0.030672000721096992 -0.014418999664485455 0.01807199977338314 0.005388000048696995
          -0.012230000458657742 0.03532800078392029 0.008144999854266644 0.031828999519348145 0.030667999759316444 -0.011781999841332436
          0.03279000148177147 0.030773000791668892 0 0.031828999519348145 0.030667999759316444 0.011781999841332436
          0.027773000299930573 0.031210999935865402 -0.01990699954330921 0.020198000594973564 0.0328340008854866 -0.023592999204993248
          0.010236999951303005 0.03416299819946289 -0.02374500036239624 -0.003444999922066927 0.03727399930357933 -0.014914999715983868
          -0.008293000049889088 0.04531199857592583 -0.016930999234318733 -0.008834999985992908 0.0422229990363121 -0.01063000038266182
          0.017596999183297157 0.033824000507593155 0 0.001297999988310039 0.03756700083613396 -0.018112000077962875
          -0.008293000049889088 0.04531199857592583 0.016930999234318733 -0.003444999922066927 0.03727399930357933 0.014914999715983868
          -0.008834999985992908 0.0422229990363121 0.01063000038266182 0.001297999988310039 0.03756700083613396 0.018112000077962875
          -0.009414000436663628 0.03703799843788147 -0.030108999460935593 -0.007459000218659639 0.04027099907398224 -0.0194729994982481
          -0.018214000388979912 0.023287000134587288 -0.016388000920414925 -0.023368999361991882 0.022671999409794807 -0.013384000398218632
          -0.019138000905513763 0.03604999929666519 -0.022346999496221542 -0.02001499943435192 0.0347599983215332 -0.01500600017607212
          -0.018074000254273415 0.032625000923871994 -0.013415999710559845 -0.016482999548316002 0.045552000403404236 -0.02061999961733818
          -0.012086999602615833 0.03954700008034706 -0.022533999755978584 -0.012690999545156956 0.014999999664723873 -0.01269300002604723
          -0.02447899989783764 0.020447999238967896 -0.01806199923157692 -0.014941999688744545 0.029631000012159348 -0.0340379998087883
          -0.0125730000436306 0.03166799992322922 -0.03732600063085556 -0.013993999920785427 0.03781000152230263 -0.034515999257564545
          -0.01613299921154976 0.014103000052273273 -0.007075000088661909 -0.017430000007152557 0.019982999190688133 0
          -0.02273000031709671 0.029921000823378563 -0.005224000196903944 -0.0324070006608963 0.028150999918580055 0
          -0.0188790000975132 0.027758000418543816 -0.008771000429987907 -0.017486000433564186 0.030573999509215355 -0.011001000180840492
          -0.02273000031709671 0.029921000823378563 0.005224000196903944 -0.0188790000975132 0.027758000418543816 0.008771000429987907
          -0.017486000433564186 0.030573999509215355 0.011001000180840492 -0.013238999992609024 0.0361890010535717 -0.012002999894320965
          0.027773000299930573 0.031210999935865402 0.01990699954330921 0.020198000594973564 0.0328340008854866 0.023592999204993248
          0.010236999951303005 0.03416299819946289 0.02374500036239624 -0.009414000436663628 0.03703799843788147 0.030108999460935593
          -0.007459000218659639 0.04027099907398224 0.0194729994982481 -0.016482999548316002 0.045552000403404236 0.02061999961733818
          -0.019138000905513763 0.03604999929666519 0.022346999496221542 -0.012086999602615833 0.03954700008034706 0.022533999755978584
          -0.023368999361991882 0.022671999409794807 0.013384000398218632 -0.018214000388979912 0.023287000134587288 0.016388000920414925
          -0.02001499943435192 0.0347599983215332 0.01500600017607212 -0.018074000254273415 0.032625000923871994 0.013415999710559845
          -0.012690999545156956 0.014999999664723873 0.01269300002604723 -0.02447899989783764 0.020447999238967896 0.01806199923157692
          -0.0125730000436306 0.03166799992322922 0.03732600063085556 -0.014941999688744545 0.029631000012159348 0.0340379998087883
          -0.013993999920785427 0.03781000152230263 0.034515999257564545 -0.01613299921154976 0.014103000052273273 0.007075000088661909
          -0.013238999992609024 0.0361890010535717 0.012002999894320965 -0.023377999663352966 0.04349600151181221 -0.017280999571084976
          -0.016920000314712524 0.03922700136899948 -0.01473500020802021 -0.023377999663352966 0.04349600151181221 0.017280999571084976
          -0.016920000314712524 0.03922700136899948 0.01473500020802021 -0.02844100072979927 0.018526999279856682 -0.01027700025588274
          -0.026878999546170235 0.022450000047683716 -0.010861000046133995 -0.026398999616503716 0.014468000270426273 -0.017806999385356903
          -0.022614000365138054 0.024910999462008476 -0.009358000010251999 -0.02185099944472313 0.041388001292943954 -0.022856000810861588
          -0.024437999352812767 0.03930699825286865 -0.01775299943983555 -0.019869999960064888 0.006124999839812517 -0.01410400029271841
          -0.01962199993431568 0.012291000224649906 -0.005619999952614307 -0.021740000694990158 0.014945000410079956 0
          -0.01962199993431568 0.012291000224649906 0.005619999952614307 -0.028060000389814377 0.02625799924135208 -0.0044109998270869255
          -0.0324539989233017 0.022910000756382942 -0.0042929998598992825 -0.038871001452207565 0.02708500064909458 0
          -0.028060000389814377 0.02625799924135208 0.0044109998270869255 -0.0324539989233017 0.022910000756382942 0.0042929998598992825
          -0.022614000365138054 0.024910999462008476 0.009358000010251999 -0.02185099944472313 0.041388001292943954 0.022856000810861588
          -0.024437999352812767 0.03930699825286865 0.01775299943983555 -0.026878999546170235 0.022450000047683716 0.010861000046133995
          -0.02844100072979927 0.018526999279856682 0.01027700025588274 -0.026398999616503716 0.014468000270426273 0.017806999385356903
          -0.019869999960064888 0.006124999839812517 0.01410400029271841 -0.03325200080871582 0.02245499938726425 -0.004482000134885311
          -0.025102000683546066 0.013633999973535538 -0.008077000267803669 -0.030875999480485916 0.020295999944210052 -0.005259000230580568
          -0.03169799968600273 0.017480000853538513 0 -0.025102000683546066 0.013633999973535538 0.008077000267803669
          -0.030875999480485916 0.020295999944210052 0.005259000230580568 -0.041071001440286636 0.024709999561309814 0
          -0.03325200080871582 0.02245499938726425 0.004482000134885311 -0.03618000075221062 0.021191999316215515 -0.004883999936282635
          -0.03447800129652023 0.01948400028049946 -0.004902000073343515 -0.036042001098394394 0.017513999715447426 -0.00380500010214746
          -0.037358999252319336 0.017381999641656876 0 -0.036042001098394394 0.017513999715447426 0.00380500010214746
          -0.03447800129652023 0.01948400028049946 0.004902000073343515 -0.040686000138521194 0.021779000759124756 -0.004945999942719936
          -0.041531000286340714 0.02108200080692768 0 -0.040686000138521194 0.021779000759124756 0.004945999942719936
          -0.03618000075221062 0.021191999316215515 0.004883999936282635 -0.040171001106500626 0.019548999145627022 -0.005762999877333641
          -0.03985799849033356 0.018370000645518303 0 -0.040171001106500626 0.019548999145627022 0.005762999877333641
          <InformationKey name="L2_NORM_RANGE" location="vtkDataArray" length="2">
            <Value index="0">
              0.0119120618
            </Value>
            <Value index="1">
              0.053073368591
            </Value>
          </InformationKey>
        </DataArray>
      </Points>
      <Verts>
        <DataArray type="Int64" Name="connectivity" format="ascii" RangeMin="1e+299" RangeMax="-1e+299">
        </DataArray>
        <DataArray type="Int64" Name="offsets" format="ascii" RangeMin="1e+299" RangeMax="-1e+299">
        </DataArray>
      </Verts>
      <Lines>
        <DataArray type="Int64" Name="connectivity" format="ascii" RangeMin="1e+299" RangeMax="-1e+299">
        </DataArray>
        <DataArray type="Int64" Name="offsets" format="ascii" RangeMin="1e+299" RangeMax="-1e+299">
        </DataArray>
      </Lines>
      <Strips>
        <DataArray type="Int64" Name="connectivity" format="ascii" RangeMin="1e+299" RangeMax="-1e+299">
        </DataArray>
        <DataArray type="Int64" Name="offsets" format="ascii" RangeMin="1e+299" RangeMax="-1e+299">
        </DataArray>
      </Strips>
      <Polys>
        <DataArray type="Int32" Name="connectivity" format="ascii" RangeMin="0" RangeMax="211">
          0 1 2 0 3 1
          0 4 3 0 5 6
          6 7 0 0 7 8
          8 4 0 2 9 0
          9 10 0 10 11 0
          12 5 0 0 13 12
          14 13 0 0 11 14
          2 1 15 15 1 3
          16 2 15 17 9 2
          17 2 16 18 15 3
          18 3 4 19 18 4
          19 4 8 20 6 5
          21 20 5 5 12 22
          5 22 21 6 20 7
          7 23 24 8 7 24
          25 23 7 20 25 7
          24 19 8 10 9 17
          10 17 26 11 10 26
          11 26 27 14 11 27
          13 22 12 28 29 13
          28 13 14 13 29 30