<?xml version="1.0"?>
<VTKFile type="PolyData" version="0.1" byte_order="LittleEndian" header_type="UInt32" compressor="vtkZLibDataCompressor">
  <PolyData>
    <Piece NumberOfPoints="212" NumberOfVerts="0" NumberOfLines="0" NumberOfStrips="0" NumberOfPolys="424">
      <PointData Normals="Normals">
        <DataArray type="Float32" Name="Normals" NumberOfComponents="3" format="ascii" RangeMin="0.9999993261002981" RangeMax="1.0000006299762796">
          0.3383220136165619 -0.9410300254821777 0 0.6857550144195557 -0.6977490186691284 -0.20709000527858734
          0.8833230137825012 -0.468764990568161 0 0.753387987613678 -0.38458898663520813 -0.5333840250968933
          0.4186689853668213 -0.23653900623321533 -0.8767930269241333 -0.9376720190048218 -0.34752199053764343 0
          -0.6505680084228516 -0.7592939734458923 0.015325999818742275 -0.8954030275344849 -0.3694060146808624 -0.24858300387859344
          -0.15884900093078613 -0.36159801483154297 -0.9187020063400269 0.6857560276985168 -0.6977480053901672 0.20709000527858734
          0.753387987613678 -0.3845829963684082 0.5333870053291321 0.41866400837898254 -0.2365349978208542 0.8767960071563721
          -0.6505680084228516 -0.7592939734458923 -0.015325999818742275 -0.8954030275344849 -0.3694060146808624 0.24858300387859344
          -0.15884900093078613 -0.36159801483154297 0.9187020063400269 0.937978982925415 0.23418399691581726 -0.2556450068950653
          0.9838520288467407 0.17898300290107727 0 0.9379780292510986 0.23418700695037842 0.2556439936161041
          0.47621700167655945 0.48049700260162354 -0.7364370226860046 0.09156399965286255 0.37493300437927246 -0.9225190281867981
          -0.9803990125656128 -0.18549099564552307 0.06641200184822083 -0.9296910166740417 -0.36834099888801575 0
          -0.9803990125656128 -0.18549099564552307 -0.06641200184822083 -0.7557349801063538 -0.41278699040412903 -0.5084009766578674
          -0.5065799951553345 0.2088479995727539 -0.8365160226821899 -0.8666089773178101 -0.48745301365852356 0.10666999965906143
          0.4762119948863983 0.48050299286842346 0.7364370226860046 0.09156399965286255 0.37493300437927246 0.9225190281867981
          -0.5065799951553345 0.2088479995727539 0.8365160226821899 -0.7557359933853149 -0.41278499364852905 0.508400022983551
          -0.8666099905967712 -0.4874509871006012 -0.10666699707508087 0.7960860133171082 0.4609439969062805 -0.39214399456977844
          0.872518002986908 0.4885829985141754 0 0.7960860133171082 0.4609439969062805 0.39214399456977844
          0.5158510208129883 0.3333140015602112 -0.7891759872436523 0.1462240070104599 0.18438899517059326 -0.9719150066375732
          -0.7627540230751038 -0.6030219793319702 0.23360300064086914 -0.817126989364624 -0.5764579772949219 0
          -0.7627549767494202 -0.6030240058898926 -0.233597993850708 0.1333010047674179 -0.6434720158576965 -0.7537729740142822
          -0.10289300233125687 -0.10561499744653702 -0.9890699982643127 -0.27899599075317383 -0.8652409911155701 0.4165570139884949
          0.5158510208129883 0.3333140015602112 0.7891759872436523 0.1462240070104599 0.18438899517059326 0.9719150066375732
          -0.10289300233125687 -0.10561499744653702 0.9890699982643127 0.1333010047674179 -0.6434720158576965 0.7537739872932434
          -0.27900299429893494 -0.8652420043945312 -0.4165489971637726 0.9013149738311768 0.20341700315475464 -0.38242998719215393
          0.9538339972496033 0.3003329932689667 0 0.9013149738311768 0.20341700315475464 0.38242998719215393
          0.6100469827651978 -0.012690000236034393 -0.7922639846801758 0.3046500086784363 -0.16736499965190887 -0.9376450181007385
          -0.861545979976654 -0.42903101444244385 0.27142301201820374 -0.3683440089225769 -0.152538001537323 0.9170899987220764
          -0.9095379710197449 -0.4156219959259033 0 -0.861545979976654 -0.42903101444244385 -0.27142301201820374
          -0.36834800243377686 -0.15254199504852295 -0.917087972164154 0.13795199990272522 0.031081000342965126 -0.9899510145187378
          0.11757999658584595 -0.2523370087146759 -0.9604690074920654 0.1676429957151413 -0.746891975402832 -0.6434659957885742
          0.34821900725364685 -0.9007970094680786 -0.25944000482559204 0.6639469861984253 -0.2106509953737259 -0.7174959778785706
          0.5960220098495483 0.4210140109062195 0.6837430000305176 0.6100469827651978 -0.012690000236034393 0.7922639846801758
          0.3046500086784363 -0.16736499965190887 0.9376450181007385 0.11757999658584595 -0.2523370087146759 0.9604690074920654
          0.13795199990272522 0.031081000342965126 0.9899510145187378 0.34821799397468567 -0.9007970094680786 0.25944098830223083
          0.1676429957151413 -0.746891975402832 0.6434659957885742 0.6639469861984253 -0.2106509953737259 0.7174959778785706
          0.5960209965705872 0.4210149943828583 -0.6837430000305176 0.9289640188217163 0.17410799860954285 -0.32666999101638794
          0.9724460244178772 0.23312699794769287 0 0.9289640188217163 0.17410799860954285 0.32666999101638794
          0.6359559893608093 0.004296000115573406 -0.7717139720916748 0.28340399265289307 -0.20902200043201447 -0.9359440207481384
          -0.7075210213661194 0.5882890224456787 0.39157500863075256 -0.18001900613307953 -0.08522000163793564 0.9799649715423584
          -0.9061689972877502 0.4229150116443634 0 -0.7075210213661194 0.5882890224456787 -0.39157500863075256
          -0.18001900613307953 -0.08522000163793564 -0.9799649715423584 -0.25186100602149963 0.13038699328899384 -0.9589390158653259
          -0.0075599998235702515 -0.19418099522590637 -0.9809359908103943 0.14416000247001648 0.7739089727401733 -0.6166710257530212
          -0.219200998544693 -0.7512069940567017 -0.6226069927215576 -0.4987480044364929 -0.5332130193710327 -0.683326005935669
          -0.10668999701738358 -0.8861879706382751 -0.45087501406669617 0.9066900014877319 -0.01020899973809719 -0.4216749966144562
          0.21934400498867035 -0.9702709913253784 -0.10228800028562546 0.7294570207595825 0.30721399188041687 -0.6111559867858887
          0.8999450206756592 0.163223996758461 0.40429699420928955 0.7999539971351624 0.6000609993934631 0
          -0.746740996837616 0.6651149988174438 0.0000019999999949504854 -0.5364919900894165 0.31574198603630066 0.7826129794120789
          0.6359559893608093 0.004296000115573406 0.7717139720916748 0.28340399265289307 -0.20902200043201447 0.9359440207481384
          -0.0075599998235702515 -0.19418099522590637 0.9809359908103943 -0.25186100602149963 0.13038699328899384 0.9589390158653259
          0.14416000247001648 0.7739089727401733 0.6166710257530212 -0.4987500011920929 -0.5332149863243103 0.6833230257034302
          -0.219200998544693 -0.7512069940567017 0.6226069927215576 -0.10668999701738358 -0.8861879706382751 0.45087501406669617
          0.9066900014877319 -0.01020899973809719 0.4216749966144562 0.7294570207595825 0.30721399188041687 0.6111559867858887
          0.21934500336647034 -0.9702699780464172 0.102292999625206 0.8999450206756592 0.163223996758461 -0.40429699420928955
          -0.5364940166473389 0.31574299931526184 -0.7826110124588013 0.4589880108833313 0.8094969987869263 -0.3661220073699951
          0.6424000263214111 0.7663699984550476 0 0.4589880108833313 0.8094969987869263 0.3661220073699951
          0.1438719928264618 0.8201090097427368 -0.5538250207901001 0.019030999392271042 0.545153021812439 -0.8381199836730957
          -0.2992349863052368 0.37761300802230835 -0.8762800097465515 -0.03967899829149246 0.9185550212860107 -0.3932960033416748
          -0.34594500064849854 0.9170830249786377 0.1981939971446991 -0.7387920022010803 0.3538990020751953 0.5735350251197815
          -0.38659799098968506 0.9222490191459656 0 -0.5149480104446411 0.7524809837341309 -0.41061100363731384
          -0.34594300389289856 0.9170830249786377 -0.19819599390029907 -0.03967899829149246 0.9185550212860107 0.3932960033416748
          -0.7387930154800415 0.35389798879623413 -0.5735329985618591 -0.5149480104446411 0.7524809837341309 0.41061100363731384
          -0.4876759946346283 0.6209189891815186 -0.6137030124664307 0.11471699923276901 0.8381819725036621 -0.5331900119781494
          -0.04249599948525429 -0.0006750000175088644 -0.9990959763526917 -0.8562819957733154 -0.07425499707460403 -0.5111420154571533
          -0.205827996134758 -0.679481029510498 -0.7042310237884521 -0.4705590009689331 -0.6366490125656128 0.6109430193901062
          -0.9172589778900146 -0.18519799411296844 0.35261398553848267 -0.2983640134334564 0.5205590128898621 -0.7999979853630066
          -0.4783079922199249 0.47868698835372925 -0.7362610101699829 0.9592909812927246 0.1506579965353012 -0.23887799680233002
          -0.006697000004351139 0.11836399883031845 -0.9929479956626892 -0.5315300226211548 -0.8258180022239685 -0.18841800093650818
          0.3312720060348511 -0.05331199988722801 -0.9420279860496521 -0.9708899855613708 -0.11772400140762329 0.20859700441360474
          0.8877279758453369 -0.04084499925374985 0.4585539996623993 0.9994490146636963 -0.0331990011036396 0
          -0.6817749738693237 0.3797770142555237 -0.6252610087394714 -0.8822649717330933 0.470753014087677 0.0000019999999949504854
          -0.9554340243339539 0.19892099499702454 -0.21811799705028534 -0.9758780002593994 0.044555000960826874 0.21371899545192719
          -0.6817770004272461 0.37977901101112366 0.6252589821815491 -0.9554349780082703 0.19892199337482452 0.21811500191688538
          -0.9758790135383606 0.044557999819517136 -0.2137179970741272 -0.7883949875831604 0.09212800115346909 0.6082320213317871
          0.1438719928264618 0.8201090097427368 0.5538250207901001 0.019030999392271042 0.545153021812439 0.8381199836730957
          -0.2992349863052368 0.37761300802230835 0.8762800097465515 -0.4876739978790283 0.6209189891815186 0.6137040257453918
          0.11471699923276901 0.8381829857826233 0.5331869721412659 -0.29836800694465637 0.5205579996109009 0.7999969720840454
          -0.205827996134758 -0.679481029510498 0.7042310237884521 -0.47831299901008606 0.4786849915981293 0.7362589836120605
          -0.8562819957733154 -0.07425499707460403 0.5111420154571533 -0.04249599948525429 -0.0006750000175088644 0.9990959763526917
          -0.47055599093437195 -0.6366479992866516 -0.6109470129013062 -0.9172599911689758 -0.1851940006017685 -0.35261601209640503
          0.9592909812927246 0.1506579965353012 0.23887799680233002 -0.006697000004351139 0.11836399883031845 0.9929479956626892
          0.331275999546051 -0.0533050000667572 0.9420269727706909 -0.5315260291099548 -0.8258169889450073 0.1884319931268692
          -0.9708930253982544 -0.11772800236940384 -0.2085849940776825 0.8877279758453369 -0.04084499925374985 -0.4585539996623993
          -0.7883930206298828 0.09213099628686905 -0.6082339882850647 -0.8130480051040649 0.21557499468326569 0.5408139824867249
          -0.40594300627708435 0.15677599608898163 0.9003509879112244 -0.8130480051040649 0.21557499468326569 -0.5408139824867249
          -0.40593600273132324 0.15677499771118164 -0.9003540277481079 -0.5586119890213013 -0.657380998134613 -0.5057700276374817
          -0.764693021774292 -0.04542199894785881 -0.6427919864654541 -0.6418110132217407 -0.6845560073852539 -0.34563198685646057
          -0.9338210225105286 0.19807399809360504 -0.2979010045528412 -0.6329309940338135 -0.11625800281763077 -0.7654299736022949
          -0.6349350214004517 -0.7679929733276367 -0.08393300324678421 0.7723990082740784 -0.6169739961624146 -0.15080800652503967
          0.6491720080375671 -0.6065400242805481 0.4590049982070923 0.9592409729957581 -0.2825869917869568 0
          0.6491720080375671 -0.6065400242805481 -0.4590049982070923 -0.6948800086975098 0.2262060046195984 -0.6826220154762268
          -0.6273469924926758 0.1723089963197708 -0.7594379782676697 -0.921180009841919 0.38913801312446594 0
          -0.694881021976471 0.22621099650859833 0.6826189756393433 -0.6273469924926758 0.1723089963197708 0.7594379782676697
          -0.9338210225105286 0.19807399809360504 0.2979010045528412 -0.6329309940338135 -0.11625800281763077 0.7654299736022949
          -0.6349350214004517 -0.7679929733276367 0.08393300324678421 -0.764693021774292 -0.04542199894785881 0.6427919864654541
          -0.5586119890213013 -0.657380998134613 0.5057700276374817 -0.6418110132217407 -0.6845560073852539 0.34563198685646057
          0.7723990082740784 -0.6169739961624146 0.15080800652503967 -0.3917750120162964 -0.127919003367424 -0.9111250042915344
          -0.09460700303316116 -0.9846240282058716 0.14685200154781342 0.12905199825763702 -0.7136020064353943 -0.6885619759559631
          0.6865370273590088 -0.7270950078964233 0 -0.09460700303316116 -0.9846240282058716 -0.14685200154781342
          0.12905199825763702 -0.7136020064353943 0.6885619759559631 -0.9680780172348022 0.25064900517463684 0
          -0.3917750120162964 -0.127919003367424 0.9111250042915344 -0.09794099628925323 0.16152900457382202 -0.9819959998130798
          -0.002171000000089407 -0.08787699788808823 -0.9961289763450623 0.34963399171829224 -0.5239610075950623 -0.7766730189323425
          0.30418598651885986 -0.9526129961013794 0 0.34963399171829224 -0.5239610075950623 0.7766730189323425
          -0.002171000000089407 -0.08787699788808823 0.9961289763450623 -0.6846070289611816 -0.3259980082511902 -0.6519500017166138
          -0.7303770184516907 -0.6830450296401978 0 -0.6846070289611816 -0.3259980082511902 0.6519500017166138
          -0.09794099628925323 0.16152900457382202 0.9819959998130798 -0.07714000344276428 -0.6852650046348572 -0.7241969704627991
          -0.3918150067329407 -0.9200440049171448 0 -0.07714000344276428 -0.6852650046348572 0.7241969704627991
          <InformationKey name="L2_NORM_RANGE" location="vtkDataArray" length="2">
            <Value index="0">
              0.9999993261
            </Value>
            <Value index="1">
              1.00000063
            </Value>
          </InformationKey>
        </DataArray>
      </PointData>
      <CellData>
      </CellData>
      <Points>
        <DataArray type="Float32" Name="Points" NumberOfComponents="3" format="ascii" RangeMin="0.08705370448813707" RangeMax="0.1425093401192602">
          0.010262000374495983 0.10834299772977829 0 0.023284999653697014 0.11541000008583069 -0.008983000181615353
          0.02232999913394451 0.11101599782705307 0 0.018658999353647232 0.11378400027751923 -0.018384000286459923
          0.01153200026601553 0.11036600172519684 -0.022960999980568886 -0.006566999945789576 0.10362400114536285 0
          -0.006345999892801046 0.10331200063228607 -0.005394999869167805 -0.006816000211983919 0.1035119965672493 -0.015980999916791916
          -0.0022120000794529915 0.10674600303173065 -0.02309500053524971 0.023284999653697014 0.11541000008583069 0.008983000181615353
          0.018658999353647232 0.11378400027751923 0.018384000286459923 0.01153200026601553 0.11036600172519684 0.022960999980568886
          -0.006345999892801046 0.10331200063228607 0.005394999869167805 -0.006816000211983919 0.1035119965672493 0.015980999916791916
          -0.0022120000794529915 0.10674600303173065 0.02309500053524971 0.023538999259471893 0.11675500124692917 -0.010789000429213047
          0.02319199964404106 0.11738099902868271 0 0.023538999259471893 0.11675500124692917 0.010789000429213047
          0.016863999888300896 0.11631300300359726 -0.017754999920725822 0.008351000025868416 0.11546199768781662 -0.02158600091934204
          -0.005504999775439501 0.10954099893569946 -0.005045999772846699 -0.005421000067144632 0.10941500216722488 0
          -0.005504999775439501 0.10954099893569946 0.005045999772846699 -0.006155000068247318 0.1112930029630661 -0.016318000853061676
          -0.001867000013589859 0.11015400290489197 -0.021747000515460968 -0.0070039997808635235 0.11065399646759033 -0.009634999558329582
          0.016863999888300896 0.11631300300359726 0.017754999920725822 0.008351000025868416 0.11546199768781662 0.02158600091934204
          -0.001867000013589859 0.11015400290489197 0.021747000515460968 -0.006155000068247318 0.1112930029630661 0.016318000853061676
          -0.0070039997808635235 0.11065399646759033 0.009634999558329582 0.01919499970972538 0.1219640001654625 -0.010502000339329243
          0.020654000341892242 0.12208999693393707 0 0.01919499970972538 0.1219640001654625 0.010502000339329243
          0.013481000438332558 0.12084899842739105 -0.017309000715613365 0.006624000146985054 0.12004999816417694 -0.01962899975478649
          -0.01040400005877018 0.11552099883556366 -0.00648100022226572 -0.009937000460922718 0.11577700078487396 0
          -0.01040400005877018 0.11552099883556366 0.00648100022226572 -0.00871300045400858 0.11461299657821655 -0.01945899985730648
          -0.0033160001039505005 0.11740799993276596 -0.020577000454068184 -0.012438000179827213 0.11527799814939499 -0.009941999800503254
          0.013481000438332558 0.12084899842739105 0.017309000715613365 0.006624000146985054 0.12004999816417694 0.01962899975478649
          -0.0033160001039505005 0.11740799993276596 0.020577000454068184 -0.00871300045400858 0.11461299657821655 0.01945899985730648
          -0.012438000179827213 0.11527799814939499 0.009941999800503254 0.01599299907684326 0.1309400051832199 -0.010130000300705433
          0.016912000253796577 0.13276199996471405 0 0.01599299907684326 0.1309400051832199 0.010130000300705433
          0.010080999694764614 0.12884800136089325 -0.017974000424146652 0.005239000078290701 0.1267559975385666 -0.01971600018441677
          -0.014626000076532364 0.12127900123596191 -0.006696000229567289 -0.016724999994039536 0.12084600329399109 -0.010394999757409096
          -0.013961000367999077 0.12171600013971329 0 -0.014626000076532364 0.12127900123596191 0.006696000229567289
          -0.016724999994039536 0.12084600329399109 0.010394999757409096 -0.009819000028073788 0.12146899849176407 -0.021129999309778214
          -0.004782999865710735 0.12257499992847443 -0.020721999928355217 -0.012838000431656837 0.11567799746990204 -0.02149900048971176
          -0.01448999997228384 0.1113860011100769 -0.01752999983727932 -0.01611199975013733 0.11834199726581573 -0.02571599930524826
          -0.021371999755501747 0.11404000222682953 -0.003788999980315566 0.010080999694764614 0.12884800136089325 0.017974000424146652
          0.005239000078290701 0.1267559975385666 0.01971600018441677 -0.004782999865710735 0.12257499992847443 0.020721999928355217
          -0.009819000028073788 0.12146899849176407 0.021129999309778214 -0.01448999997228384 0.1113860011100769 0.01752999983727932
          -0.012838000431656837 0.11567799746990204 0.02149900048971176 -0.01611199975013733 0.11834199726581573 0.02571599930524826
          -0.021371999755501747 0.11404000222682953 0.003788999980315566 0.015437999740242958 0.13649900257587433 -0.011210000142455101
          0.015876000747084618 0.13719700276851654 0 0.015437999740242958 0.13649900257587433 0.011210000142455101
          0.010507999919354916 0.13372500240802765 -0.019027000293135643 0.00472299987450242 0.13039200007915497 -0.02180499956011772
          -0.017968999221920967 0.1287049949169159 -0.008549000136554241 -0.018035000190138817 0.12654200196266174 -0.01116199977695942
          -0.0159939993172884 0.12847399711608887 0 -0.017968999221920967 0.1287049949169159 0.008549000136554241
          -0.018035000190138817 0.12654200196266174 0.01116199977695942 -0.012504000216722488 0.12564100325107574 -0.020416000857949257
          -0.004300999920815229 0.12811200320720673 -0.02286599949002266 -0.019138000905513763 0.12410999834537506 -0.020468000322580338
          -0.022571999579668045 0.11294099688529968 -0.017633000388741493 -0.025769999250769615 0.11681000143289566 -0.023740999400615692
          -0.01863200031220913 0.11197800189256668 -0.025398999452590942 -0.015375999733805656 0.10764200240373611 -0.010789000429213047
          -0.020397000014781952 0.11391899734735489 -0.0297200009226799 -0.020100999623537064 0.11764200031757355 -0.03269200026988983
          -0.01706700026988983 0.10225199908018112 -0.00522099994122982 -0.02112000063061714 0.1124119982123375 0
          -0.030294999480247498 0.11204099655151367 0 -0.025596000254154205 0.11965300142765045 -0.007891999557614326
          0.010507999919354916 0.13372500240802765 0.019027000293135643 0.00472299987450242 0.13039200007915497 0.02180499956011772
          -0.004300999920815229 0.12811200320720673 0.02286599949002266 -0.012504000216722488 0.12564100325107574 0.020416000857949257
          -0.019138000905513763 0.12410999834537506 0.020468000322580338 -0.025769999250769615 0.11681000143289566 0.023740999400615692
          -0.022571999579668045 0.11294099688529968 0.017633000388741493 -0.01863200031220913 0.11197800189256668 0.025398999452590942
          -0.015375999733805656 0.10764200240373611 0.010789000429213047 -0.020100999623537064 0.11764200031757355 0.03269200026988983
          -0.020397000014781952 0.11391899734735489 0.0297200009226799 -0.01706700026988983 0.10225199908018112 0.00522099994122982
          -0.025596000254154205 0.11965300142765045 0.007891999557614326 0.013283999636769295 0.14119599759578705 -0.011416000314056873
          0.014000000432133675 0.1418199986219406 0 0.013283999636769295 0.14119599759578705 0.011416000314056873
          0.008460000157356262 0.1387300044298172 -0.01928899995982647 0.0015839999541640282 0.1358020007610321 -0.022859999909996986
          -0.007050999905914068 0.1312970072031021 -0.02300800010561943 -0.01956300064921379 0.12615400552749634 -0.01445200014859438
          -0.027515999972820282 0.129954993724823 -0.016405999660491943 -0.026381999254226685 0.12714600563049316 -0.010300000198185444
          -0.0009970000246539712 0.13514700531959534 0 -0.015922000631690025 0.12904900312423706 -0.017549000680446625
          -0.027515999972820282 0.129954993724823 0.016405999660491943 -0.01956300064921379 0.12615400552749634 0.01445200014859438
          -0.026381999254226685 0.12714600563049316 0.010300000198185444 -0.015922000631690025 0.12904900312423706 0.017549000680446625
          -0.0242139995098114 0.12261799722909927 -0.029174000024795532 -0.024291999638080597 0.1263349950313568 -0.018868999555706978
          -0.0231539998203516 0.10493999719619751 -0.01587899960577488 -0.026959000155329704 0.10154999792575836 -0.012968000024557114
          -0.0314829982817173 0.11636900156736374 -0.02165300026535988 -0.03152899816632271 0.11483100056648254 -0.014539999887347221
          -0.028894999995827675 0.11418700218200684 -0.013000000268220901 -0.03418299928307533 0.12556099891662598 -0.019979000091552734
          -0.027622999623417854 0.12315499782562256 -0.021834999322891235 -0.01410599984228611 0.1006999984383583 -0.012299000285565853
          -0.025446999818086624 0.09730300307273865 -0.017501000314950943 -0.02487199939787388 0.1135139986872673 -0.03298100084066391
          -0.02401299960911274 0.11649399995803833 -0.036166999489068985 -0.028264999389648438 0.12067800015211105 -0.03344399854540825
          -0.015487000346183777 0.096731998026371 -0.00685499981045723 -0.02045699954032898 0.10213399678468704 0
          -0.030162999406456947 0.1078369989991188 -0.005061999894678593 -0.03699199855327606 0.10097000002861023 0
          -0.0259770005941391 0.10822500288486481 -0.008497999981045723 -0.027383999899029732 0.1128539964556694 -0.010658999904990196
          -0.030162999406456947 0.1078369989991188 0.005061999894678593 -0.0259770005941391 0.10822500288486481 0.008497999981045723
          -0.027383999899029732 0.1128539964556694 0.010658999904990196 -0.0268389992415905 0.11978700011968613 -0.011629999615252018
          0.008460000157356262 0.1387300044298172 0.01928899995982647 0.0015839999541640282 0.1358020007610321 0.022859999909996986
          -0.007050999905914068 0.1312970072031021 0.02300800010561943 -0.0242139995098114 0.12261799722909927 0.029174000024795532
          -0.024291999638080597 0.1263349950313568 0.018868999555706978 -0.03418299928307533 0.12556099891662598 0.019979000091552734
          -0.0314829982817173 0.11636900156736374 0.02165300026535988 -0.027622999623417854 0.12315499782562256 0.021834999322891235
          -0.026959000155329704 0.10154999792575836 0.012968000024557114 -0.0231539998203516 0.10493999719619751 0.01587899960577488
          -0.03152899816632271 0.11483100056648254 0.014539999887347221 -0.028894999995827675 0.11418700218200684 0.013000000268220901
          -0.01410599984228611 0.1006999984383583 0.012299000285565853 -0.025446999818086624 0.09730300307273865 0.017501000314950943
          -0.02401299960911274 0.11649399995803833 0.036166999489068985 -0.02487199939787388 0.1135139986872673 0.03298100084066391
          -0.028264999389648438 0.12067800015211105 0.03344399854540825 -0.015487000346183777 0.096731998026371 0.00685499981045723
          -0.0268389992415905 0.11978700011968613 0.011629999615252018 -0.03864999860525131 0.1200300008058548 -0.01674400083720684
          -0.03132199868559837 0.12018699944019318 -0.014276999980211258 -0.03864999860525131 0.1200300008058548 0.01674400083720684
          -0.03132199868559837 0.12018699944019318 0.014276999980211258 -0.0270990002900362 0.09275200217962265 -0.009957999922335148
          -0.02840300090610981 0.09761299937963486 -0.01052400004118681 -0.023212000727653503 0.09032399952411652 -0.017254000529646873
          -0.027504000812768936 0.10380399972200394 -0.009066999889910221 -0.0363599993288517 0.1191760003566742 -0.02214599959552288
          -0.03737099841237068 0.11603999882936478 -0.017201999202370644 -0.014343000017106533 0.08805199712514877 -0.013666000217199326
          -0.01733900047838688 0.09328299760818481 -0.005444999784231186 -0.021313000470399857 0.09558799862861633 0
          -0.01733900047838688 0.09328299760818481 0.005444999784231186 -0.0325470007956028 0.10185600072145462 -0.004273999948054552
          -0.034345000982284546 0.09665700048208237 -0.0041600000113248825 -0.045017000287771225 0.0943479984998703 0
          -0.0325470007956028 0.10185600072145462 0.004273999948054552 -0.034345000982284546 0.09665700048208237 0.0041600000113248825
          -0.027504000812768936 0.10380399972200394 0.009066999889910221 -0.0363599993288517 0.1191760003566742 0.02214599959552288
          -0.03737099841237068 0.11603999882936478 0.017201999202370644 -0.02840300090610981 0.09761299937963486 0.01052400004118681
          -0.0270990002900362 0.09275200217962265 0.009957999922335148 -0.023212000727653503 0.09032399952411652 0.017254000529646873
          -0.014343000017106533 0.08805199712514877 0.013666000217199326 -0.03311900049448013 0.09203600138425827 -0.004342999774962664
          -0.022415999323129654 0.09132599830627441 -0.007826000452041626 -0.027886999770998955 0.09074100106954575 -0.00509499991312623
          -0.02611899934709072 0.08558399975299835 0 -0.022415999323129654 0.09132599830627441 0.007826000452041626
          -0.027886999770998955 0.09074100106954575 0.00509499991312623 -0.04546999931335449 0.08866599947214127 0
          -0.03311900049448013 0.09203600138425827 0.004342999774962664 -0.035627998411655426 0.08745899796485901 -0.004732999950647354
          -0.03171800076961517 0.08627700060606003 -0.004749000072479248 -0.03175799921154976 0.08179499953985214 -0.0036869999021291733
          -0.033323999494314194 0.08042299747467041 0 -0.03175799921154976 0.08179499953985214 0.0036869999021291733
          -0.03171800076961517 0.08627700060606003 0.004749000072479248 -0.04202999919652939 0.08439599722623825 -0.004792000167071819
          -0.042419999837875366 0.08255299925804138 0 -0.04202999919652939 0.08439599722623825 0.004792000167071819
          -0.035627998411655426 0.08745899796485901 0.004732999950647354 -0.03912699967622757 0.08134499937295914 -0.005584000144153833
          -0.03753900155425072 0.07976700365543365 0 -0.03912699967622757 0.08134499937295914 0.005584000144153833
          <InformationKey name="L2_NORM_RANGE" location="vtkDataArray" length="2">
            <Value index="0">
              0.087053704488
            </Value>
            <Value index="1">
              0.14250934012
            </Value>
          </InformationKey>
        </DataArray>
      </Points>
      <Verts>
        <DataArray type="Int64" Name="connectivity" format="ascii" RangeMin="1e+299" RangeMax="-1e+299">
        </DataArray>
        <DataArray type="Int64" Name="offsets" format="ascii" RangeMin="1e+299" RangeMax="-1e+299">
        </DataArray>
      </Verts>
      <Lines>
        <DataArray type="Int64" Name="connectivity" format="ascii" RangeMin="1e+299" RangeMax="-1e+299">
        </DataArray>
        <DataArray type="Int64" Name="offsets" format="ascii" RangeMin="1e+299" RangeMax="-1e+299">
        </DataArray>
      </Lines>
      <Strips>
        <DataArray type="Int64" Name="connectivity" format="ascii" RangeMin="1e+299" RangeMax="-1e+299">
        </DataArray>
        <DataArray type="Int64" Name="offsets" format="ascii" RangeMin="1e+299" RangeMax="-1e+299">
        </DataArray>
      </Strips>
      <Polys>
        <DataArray type="Int32" Name="connectivity" format="ascii" RangeMin="0" RangeMax="211">
          0 1 2 0 3 1
          0 4 3 0 5 6
          6 7 0 0 7 8
          8 4 0 2 9 0
          9 10 0 10 11 0
          12 5 0 0 13 12
          14 13 0 0 11 14
          2 1 15 15 1 3
          16 2 15 17 9 2
          17 2 16 18 15 3
          18 3 4 19 18 4
          19 4 8 20 6 5
          21 20 5 5 12 22
          5 22 21 6 20 7
          7 23 24 8 7 24
          25 23 7 20 25 7
          24 19 8 10 9 17
          10 17 26 11 10 26
          11 26 27 14 11 27
          13 22 12 28 29 13
          28 13 14 13 29 30
          13 30 22 14 27 28
          15 31 32 16 15 32
          31 15 18 32 17 16
          32 33 17 26 17 33