<?xml version="1.0"?>
<VTKFile type="PolyData" version="0.1" byte_order="LittleEndian" header_type="UInt32" compressor="vtkZLibDataCompressor">
  <PolyData>
    <Piece NumberOfPoints="1884" NumberOfVerts="0" NumberOfLines="0" NumberOfStrips="0" NumberOfPolys="3725">
      <PointData Normals="Normals">
        <DataArray type="Float32" Name="Normals" NumberOfComponents="3" format="ascii" RangeMin="0.9999991837555425" RangeMax="1.0000007376935547">
          -0.3616119921207428 -0.9317830204963684 -0.03187600150704384 -0.37972399592399597 -0.8623189926147461 -0.33498498797416687
          -0.36798301339149475 -0.8534290194511414 -0.36911600828170776 -0.3336699903011322 -0.9240440130233765 -0.18656699359416962
          -0.30725499987602234 -0.9516010284423828 0.007046999875456095 -0.2584429979324341 -0.921688973903656 0.2893039882183075
          -0.20339399576187134 -0.9095889925956726 0.3623239994049072 -0.17141500115394592 -0.9673029780387878 0.18692900240421295
          -0.3909139931201935 -0.7651270031929016 -0.5116310119628906 -0.4585370123386383 -0.7577030062675476 -0.46435999870300293
          -0.48646798729896545 -0.780331015586853 -0.3929780125617981 -0.3303079903125763 -0.915198028087616 -0.2308879941701889
          -0.16075299680233002 -0.9707199931144714 -0.17849500477313995 -0.2538749873638153 -0.7947589755058289 -0.5512769818305969
          -0.1494390070438385 -0.9880160093307495 -0.038642000406980515 -0.29068899154663086 -0.952085018157959 0.09504300355911255
          -0.2060379981994629 -0.9127979874610901 0.35262900590896606 -0.11360400170087814 -0.8355309963226318 0.5375699996948242
          0.07288999855518341 -0.8289819955825806 0.5545060038566589 0.06701900064945221 -0.9439380168914795 0.3232479989528656
          -0.3688249886035919 -0.6957389712333679 -0.6163730025291443 -0.4861989915370941 -0.6525779962539673 -0.5811650156974792
          -0.5500220060348511 -0.6984320282936096 -0.45789700746536255 -0.5674300193786621 -0.6893470287322998 -0.4503589868545532
          -0.5331839919090271 -0.638821005821228 -0.5546380281448364 -0.38148099184036255 -0.918067991733551 -0.10780899971723557
          -0.4723759889602661 -0.82396000623703 -0.31297001242637634 -0.5530660152435303 -0.6449339985847473 -0.5274249911308289
          -0.06773599982261658 -0.9942730069160461 -0.0826679989695549 0.11332099884748459 -0.9259179830551147 0.3603239953517914
          -0.12982800602912903 -0.8992549777030945 -0.41771399974823 -0.06980899721384048 -0.8676040172576904 -0.49233099818229675
          -0.1488170027732849 -0.8972780108451843 -0.41562700271606445 -0.2978299856185913 -0.9193800091743469 0.25697800517082214
          -0.1267160028219223 -0.9071030020713806 0.4013809859752655 0.07439800351858139 -0.7911949753761292 0.6070230007171631
          0.26256901025772095 -0.6773260235786438 0.6872320175170898 -0.12677200138568878 -0.8067460060119629 -0.5771399736404419
          -0.557021975517273 -0.5341249704360962 -0.6359540224075317 -0.501928985118866 -0.6257960200309753 -0.5970309972763062
          -0.39102399349212646 -0.5881659984588623 -0.7079269886016846 -0.13610300421714783 -0.6965789794921875 -0.7044529914855957
          -0.6496610045433044 -0.5379800200462341 -0.5371379852294922 -0.6581699848175049 -0.6802290081977844 -0.32264798879623413
          -0.7019360065460205 -0.5829570293426514 -0.4092029929161072 -0.5410100221633911 -0.7958440184593201 -0.27191999554634094
          -0.4169690012931824 -0.9085360169410706 -0.02644200064241886 0.09968800097703934 -0.9872099757194519 0.1244100034236908
          0.025451000779867172 -0.9990289807319641 -0.03595900163054466 0.2430649995803833 -0.9568750262260437 0.15908999741077423
          0.3103789985179901 -0.8692839741706848 0.3847210109233856 0.33046698570251465 -0.8189830183982849 0.46910300850868225
          0.3696500062942505 -0.6318780183792114 0.681240975856781 -0.04623100161552429 -0.9632319808006287 -0.26466599106788635
          0.11647000163793564 -0.9744889736175537 -0.19184699654579163 0.26197001338005066 -0.9540079832077026 -0.14574399590492249
          0.1774190068244934 -0.8585519790649414 -0.4810520112514496 -0.31401199102401733 -0.9083880186080933 0.276093989610672
          -0.2070930004119873 -0.8492569923400879 0.48566898703575134 -0.16585400700569153 -0.8350970149040222 0.5245050191879272
          -0.044429000467061996 -0.8396570086479187 0.541297972202301 0.12260600179433823 -0.7831370234489441 0.6096420288085938
          0.3249390125274658 -0.6223520040512085 0.7121049761772156 0.43359899520874023 -0.45558300614356995 0.7774549722671509
          -0.4736210107803345 -0.523410975933075 -0.7083250284194946 -0.7149369716644287 -0.3904399871826172 -0.5800189971923828
          -0.525937020778656 -0.37571999430656433 -0.7630370259284973 -0.3495500087738037 -0.5707700252532959 -0.7429909706115723
          -0.38298499584198 -0.40285301208496094 -0.8312829732894897 0.20578700304031372 -0.7311649918556213 -0.6504219770431519
          0.2621389925479889 -0.5755670070648193 -0.7746009826660156 -0.25979599356651306 -0.5371990203857422 -0.8024479746818542
          -0.17915700376033783 -0.5663790106773376 -0.804436981678009 0.026714999228715897 -0.5270839929580688 -0.8493930101394653
          -0.699658989906311 -0.49887898564338684 -0.51146399974823 -0.7720810174942017 -0.6060349941253662 -0.19134099781513214
          -0.5854769945144653 -0.7900789976119995 -0.1816370040178299 -0.7004349827766418 -0.7041929960250854 -0.1162009984254837
          -0.7642040252685547 -0.45419299602508545 -0.4579299986362457 -0.8435559868812561 -0.46792298555374146 -0.26355499029159546
          -0.4766800105571747 -0.879056990146637 -0.005956000182777643 0.18797500431537628 -0.9767979979515076 0.10261800140142441
          0.4132330119609833 -0.6042760014533997 0.681240975856781 0.3811120092868805 -0.8200759887695312 0.4268839955329895
          0.41461798548698425 -0.6207429766654968 0.6654099822044373 0.3323360085487366 -0.9410529732704163 0.06301899999380112
          0.299917995929718 -0.9509739875793457 -0.075484998524189 0.3941250145435333 -0.8771659731864929 0.2743090093135834
          0.42347100377082825 -0.8428130149841309 0.3321720063686371 0.3504819869995117 -0.7679740190505981 -0.536076009273529
          0.3377149999141693 -0.9223200082778931 -0.18781200051307678 -0.34370601177215576 -0.9037830233573914 0.2550339996814728
          -0.12754300236701965 -0.8811830282211304 0.45524701476097107 -0.11523699760437012 -0.8071979880332947 0.5789229869842529
          -0.043303001672029495 -0.8320800065994263 0.5529620051383972 0.07256799936294556 -0.7571330070495605 0.6492180228233337
          0.1832450032234192 -0.7545629739761353 0.6301239728927612 0.35979899764060974 -0.6200309991836548 0.6972129940986633
          0.5411450266838074 -0.4161120057106018 0.7307620048522949 0.4518299996852875 -0.4204210042953491 0.786827027797699
          0.49902498722076416 -0.4106709957122803 0.7631019949913025 0.3775539994239807 -0.3944289982318878 0.8377820253372192
          0.411408007144928 -0.4755539894104004 0.777554988861084 0.45769500732421875 -0.5968400239944458 0.6590129733085632
          -0.8345000147819519 -0.3099049925804138 -0.45559701323509216 -0.8313360214233398 -0.2862449884414673 -0.47638800740242004
          -0.681788980960846 -0.29750901460647583 -0.6683210134506226 -0.7692409753799438 -0.2967720031738281 -0.565858006477356
          -0.5158349871635437 -0.25162801146507263 -0.818901002407074 -0.44783899188041687 -0.2967529892921448 -0.8434320092201233
          -0.4047029912471771 -0.2644290030002594 -0.8753820061683655 -0.3418700098991394 -0.4731070101261139 -0.8119699954986572
          -0.3645640015602112 -0.21606199443340302 -0.9057649970054626 -0.2530840039253235 -0.3836669921875 -0.8881149888038635
          -0.33371999859809875 -0.2581160068511963 -0.9066460132598877 -0.28678399324417114 -0.3032180070877075 -0.9087430238723755
          0.4782260060310364 -0.629177987575531 -0.6127279996871948 0.24779999256134033 -0.3738020062446594 -0.8937940001487732
          0.33607301115989685 -0.3819279968738556 -0.8609210252761841 0.3897939920425415 -0.5001189708709717 -0.7732669711112976
          0.37197399139404297 -0.4096269905567169 -0.8329709768295288 -0.1165900006890297 -0.4284360110759735 -0.8960189819335938
          0.1353899985551834 -0.2562279999256134 -0.957086980342865 -0.8354380130767822 -0.5297039747238159 -0.1464810073375702
          -0.5554400086402893 -0.8304970264434814 0.04196000099182129 -0.7487819790840149 -0.6494330167770386 -0.1325249969959259
          -0.594560980796814 -0.8021799921989441 0.05481800064444542 -0.5996819734573364 -0.7964109778404236 0.07817500084638596
          -0.8625950217247009 -0.348814994096756 -0.36641401052474976 -0.829105019569397 -0.5047410130500793 -0.24045799672603607
          -0.8830940127372742 -0.3495500087738037 -0.31298500299453735 0.34178298711776733 -0.910260021686554 0.23369200527668
          0.3921869993209839 -0.86940598487854 0.30053800344467163 0.3427579998970032 -0.9393180012702942 0.014119000174105167
          0.4708940088748932 -0.646265983581543 0.6004989743232727 0.3144580125808716 -0.92180997133255 -0.22667600214481354
          0.3921630084514618 -0.81740802526474 -0.4219619929790497 0.34347400069236755 -0.9275310039520264 0.14735199511051178
          0.40937700867652893 -0.8946269750595093 0.17903399467468262 -0.45056599378585815 -0.8594759702682495 0.24143600463867188
          -0.20083199441432953 -0.8735989928245544 0.44327300786972046 0.013608000241219997 -0.882286012172699 0.47051700949668884
          -0.0021490000654011965 -0.9107329845428467 0.412990003824234 0.039806000888347626 -0.8768960237503052 0.4790300130844116
          0.13840900361537933 -0.7386320233345032 0.6597470045089722 0.120558001101017 -0.8432989716529846 0.5237489938735962
          0.13247500360012054 -0.7214289903640747 0.6796990036964417 -0.11490099877119064 -0.7083550095558167 0.6964409947395325
          -0.1548130065202713 -0.8818600177764893 0.44537100195884705 0.4915100038051605 -0.6008729934692383 0.6303719878196716
          0.41391101479530334 -0.5742020010948181 0.7063779830932617 0.5487689971923828 -0.5428400039672852 0.6357489824295044
          0.5806630253791809 -0.45552700757980347 0.6747779846191406 0.5909159779548645 -0.38557401299476624 0.7086259722709656
          0.4713769853115082 -0.4850830137729645 0.7365450263023376 0.41951999068260193 -0.4827350080013275 0.768746018409729
          0.4529249966144562 -0.47863200306892395 0.7521770000457764 0.47941601276397705 -0.48448801040649414 0.7317320108413696
          0.3535830080509186 -0.3709949851036072 0.8586859703063965 0.2694779932498932 -0.41645899415016174 0.8682990074157715
          0.2956089973449707 -0.49719899892807007 0.8157259821891785 0.4115790128707886 -0.4294300079345703 0.8038610219955444
          0.4160889983177185 -0.7122399806976318 0.5653179883956909 0.3995310068130493 -0.5882189869880676 0.7031170129776001
          0.4871880114078522 -0.5060120224952698 0.711758017539978 -0.8799700140953064 -0.29939699172973633 -0.368802011013031
          -0.90767902135849 -0.23523099720478058 -0.34754300117492676 -0.7619270086288452 -0.268310010433197 -0.5894719958305359
          -0.6429589986801147 -0.20856699347496033 -0.736956000328064 -0.519294023513794 -0.2054619938135147 -0.8295300006866455
          -0.4660010039806366 -0.23820699751377106 -0.8521149754524231 -0.47171100974082947 -0.22142499685287476 -0.8534979820251465
          -0.3696869909763336 -0.11635900288820267 -0.9218419790267944 -0.3213370144367218 -0.18436600267887115 -0.9288439750671387
          -0.14573900401592255 -0.29109200835227966 -0.9455289840698242 -0.2147729992866516 -0.310699999332428 -0.9259260296821594
          -0.2974649965763092 -0.2349810004234314 -0.9253640174865723 -0.3012920022010803 -0.1988469958305359 -0.9325680136680603
          -0.21527500450611115 -0.2241239994764328 -0.9504870176315308 0.5766509771347046 -0.714277982711792 -0.3965870141983032
          0.6918630003929138 -0.7009760141372681 -0.17308400571346283 0.7071800231933594 -0.6699680089950562 -0.22592000663280487
          0.505620002746582 -0.48445698618888855 -0.7138980031013489 0.5697939991950989 -0.6066529750823975 -0.5543529987335205
          0.3910369873046875 -0.21251000463962555 -0.8955050110816956 0.43503299355506897 -0.468425989151001 -0.768975019454956
          0.4383229911327362 -0.35335901379585266 -0.8264439702033997 -0.02714800089597702 -0.2830379903316498 -0.9587240219116211
          0.008477999828755856 -0.17404699325561523 -0.9847009778022766 0.30946800112724304 -0.070032998919487 -0.9483270049095154
          0.3892439901828766 -0.09469500184059143 -0.9162539839744568 -0.3452729880809784 -0.9297639727592468 0.12776799499988556
          -0.4336720108985901 -0.9004870057106018 0.03243299946188927 -0.4053010046482086 -0.8881909847259521 0.21644499897956848
          -0.2845990061759949 -0.9255480170249939 0.24972699582576752 -0.7764530181884766 -0.6262990236282349 -0.06978499889373779
          -0.6478840112686157 -0.7617110013961792 -0.006572999991476536 -0.7468090057373047 -0.6542980074882507 -0.11903800070285797
          -0.7517480254173279 -0.5995399951934814 -0.27463799715042114 -0.7443360090255737 -0.5008329749107361 -0.44173699617385864
          -0.828091025352478 -0.3390600085258484 -0.44643500447273254 0.42623499035835266 -0.9035559892654419 -0.04371200129389763
          0.49989399313926697 -0.8595100045204163 -0.1065329983830452 0.4209490120410919 -0.8839150071144104 0.20370599627494812
          0.3855069875717163 -0.7770789861679077 0.49752700328826904 -0.1472799926996231 -0.9505379796028137 0.27347099781036377
          0.03633999824523926 -0.8460090160369873 0.5319290161132812 0.03466299921274185 -0.9466410279273987 0.3204210102558136
          0.1306850016117096 -0.8918290138244629 0.43308600783348083 0.18972599506378174 -0.9243220090866089 0.3311080038547516
          -0.010604999959468842 -0.8802400231361389 0.4744110107421875 0.2856940031051636 -0.8286280035972595 0.4814099967479706
          0.2649019956588745 -0.6700400114059448 0.6934499740600586 0.44337600469589233 -0.7253980040550232 0.5265129804611206
          0.41013801097869873 -0.6407279968261719 0.6490409970283508 0.5997089743614197 -0.579239010810852 0.5521150231361389
          0.5696629881858826 -0.6523029804229736 0.4999859929084778 0.5508019924163818 -0.6449270248413086 0.5297989845275879
          0.49536800384521484 -0.592503011226654 0.6352570056915283 0.4595620036125183 -0.5344259738922119 0.7093600034713745
          0.40195798873901367 -0.5852530002593994 0.7042080163955688 0.3361409902572632 -0.4040040075778961 0.8507590293884277
          0.3030110001564026 -0.4577000141143799 0.8358799815177917 0.23184099793434143 -0.4610449969768524 0.8565549850463867
          0.31366899609565735 -0.5185920000076294 0.7954090237617493 0.42105600237846375 -0.4754379987716675 0.772445023059845
          0.40953999757766724 -0.42123401165008545 0.8092210292816162 0.5114420056343079 -0.7817400097846985 0.3568029999732971
          0.5483130216598511 -0.610755980014801 0.5712540149688721 0.652010977268219 -0.6666899919509888 0.36111798882484436
          0.6100170016288757 -0.6022869944572449 0.5149070024490356 0.5206590294837952 -0.5687569975852966 0.6367340087890625
          -0.8950790166854858 -0.2738119959831238 -0.35194000601768494 -0.8172439932823181 -0.48085200786590576 -0.31763800978660583
          -0.741428017616272 -0.4831869900226593 -0.46563398838043213 -0.6360700130462646 -0.3228580057621002 -0.7008410096168518
          -0.6195170283317566 -0.060545001178979874 -0.7826449871063232 -0.7161080241203308 -0.25972801446914673 -0.6478670239448547
          -0.6980710029602051 -0.30513399839401245 -0.6477580070495605 -0.8040980100631714 -0.015554999932646751 -0.5942929983139038
          -0.7677720189094543 -0.09546499699354172 -0.633571982383728 -0.5669779777526855 -0.14101900160312653 -0.8115720152854919
          -0.3099679946899414 -0.07385999709367752 -0.9478740096092224 -0.339354008436203 0.011125000193715096 -0.9405930042266846
          -0.4001530110836029 0.028328999876976013 -0.9160109758377075 -0.4478929936885834 -0.04196599870920181 -0.8931019902229309
          -0.25942501425743103 -0.1422179937362671 -0.9552339911460876 -0.147707000374794 -0.07255200296640396 -0.9863669872283936
          0.05083300173282623 -0.0976869985461235 -0.9939180016517639 0.5614100098609924 -0.8224570155143738 -0.09155300259590149
          0.6524149775505066 -0.7272819876670837 0.21310999989509583 0.6650230288505554 -0.7468219995498657 -0.0007270000060088933
          0.7057200074195862 -0.6860970258712769 0.17672300338745117 0.6906930208206177 -0.642920970916748 0.3310540020465851
          0.7771869897842407 -0.6237850189208984 0.0829010009765625 0.6543220281600952 -0.5260270237922668 -0.543283998966217
          0.7585219740867615 -0.5665119886398315 -0.32203900814056396 0.6459779739379883 -0.43758100271224976 -0.6254879832267761
          0.5065950155258179 -0.3928839862346649 -0.7674649953842163 0.4980120062828064 -0.21805299818515778 -0.8393080234527588
          0.45952901244163513 -0.19940300285816193 -0.8654890060424805 0.4692550003528595 -0.08077699691057205 -0.8793609738349915
          0.2548780143260956 -0.023130999878048897 -0.9666969776153564 0.3215869963169098 0.009011000394821167 -0.9468370079994202
          0.37992799282073975 -0.030076999217271805 -0.9245269894599915 0.4162540137767792 -0.12535400688648224 -0.9005659818649292
          -0.3475230038166046 -0.8990190029144287 0.26644501090049744 -0.6892039775848389 -0.7034239768981934 0.17375999689102173
          -0.5714190006256104 -0.7929360270500183 0.21150200068950653 -0.7361829876899719 -0.6655259728431702 -0.12292400002479553
          -0.7306150197982788 -0.6776419878005981 0.08368399739265442 -0.6993809938430786 -0.6203370094299316 -0.3550330102443695
          -0.6127060055732727 -0.6847190260887146 -0.39465299248695374 -0.5511959791183472 -0.523082971572876 -0.6500509977340698
          -0.658689022064209 -0.4080210030078888 -0.632178008556366 -0.7907789945602417 -0.32823100686073303 -0.5166550278663635
          0.5296199917793274 -0.8166769742965698 0.22922000288963318 -0.21163900196552277 -0.8453350067138672 0.4905279874801636
          0.27464500069618225 -0.9541969895362854 0.11865200102329254 0.06923999637365341 -0.9897689819335938 0.12475000321865082
          -0.20641100406646729 -0.9281110167503357 0.3098439872264862 0.2145179957151413 -0.8753949999809265 0.4332039952278137
          0.09877000004053116 -0.873960018157959 0.4758560061454773 0.32126399874687195 -0.8914960026741028 0.3194119930267334
          -0.30780699849128723 -0.8616750240325928 0.40345001220703125 0.5580919981002808 -0.7792080044746399 0.2852489948272705
          0.5537989735603333 -0.7225099802017212 0.4138680100440979 0.6473739743232727 -0.6277220249176025 0.4322870075702667
          0.4453659951686859 -0.6732850074768066 0.5902000069618225 0.4336319863796234 -0.658394992351532 0.6152070164680481
          0.36920198798179626 -0.6161670088768005 0.6957209706306458 0.3464069962501526 -0.5902919769287109 0.7290800213813782
          0.43804898858070374 -0.542605996131897 0.7167230248451233 0.4043169915676117 -0.5177739858627319 0.753948986530304
          0.4468640089035034 -0.5297759771347046 0.7208679914474487 0.4066390097141266 -0.48889100551605225 0.7717710137367249
          0.6433590054512024 -0.6254220008850098 0.4415160119533539 -0.7993850111961365 -0.3092449903488159 -0.5151230096817017
          -0.7997679710388184 -0.4448409974575043 -0.4030979871749878 -0.6699360013008118 -0.6440939903259277 -0.3692280054092407
          -0.6251159906387329 -0.5308369994163513 -0.5722249746322632 -0.32857999205589294 -0.1752600073814392 -0.928072988986969
          -0.5384340286254883 -0.37473100423812866 -0.7547619938850403 -0.7321789860725403 0.1843400001525879 -0.6556919813156128
          -0.4681529998779297 0.05567299947142601 -0.8818920254707336 -0.7578120231628418 -0.12039300054311752 -0.6412699818611145
          -0.8378720283508301 -0.005280000157654285 -0.5458409786224365 -0.6825069785118103 -0.038927000015974045 -0.7298420071601868
          -0.3101620078086853 0.09306400269269943 -0.9461179971694946 -0.2945590019226074 0.09245400130748749 -0.9511510133743286
          -0.23304599523544312 -0.010692999698221684 -0.9724069833755493 -0.392425000667572 0.11535900086164474 -0.9125210046768188
          -0.32562801241874695 0.1773499995470047 -0.9287160038948059 -0.6066740155220032 0.07003899663686752 -0.7918599843978882
          -0.5664070248603821 0.09716899693012238 -0.8183770179748535 -0.20187899470329285 0.01504599954932928 -0.979295015335083
          0.03045099973678589 0.010412000119686127 -0.9994819760322571 0.24726900458335876 -0.01958099938929081 -0.9687489867210388
          0.7445610165596008 -0.665120005607605 0.05694799870252609 0.7865800261497498 -0.6111090183258057 -0.08853399753570557
          0.7372639775276184 -0.5144609808921814 -0.43791699409484863 0.7562459707260132 -0.44454899430274963 -0.4800719916820526
          0.749330997467041 -0.3751620054244995 -0.5456709861755371 0.565280020236969 -0.2941559851169586 -0.7706689834594727
          0.6247109770774841 -0.18405799567699432 -0.7588539719581604 0.5176290273666382 -0.20384599268436432 -0.8309670090675354
          0.4081360101699829 -0.2737269997596741 -0.8709179759025574 0.4723779857158661 -0.08097899705171585 -0.877668023109436
          0.3914850056171417 -0.028641000390052795 -0.9197379946708679 0.4262920022010803 -0.08193700015544891 -0.9008669853210449
          -0.6370630264282227 -0.6794819831848145 0.36394399404525757 -0.492247998714447 -0.7767210006713867 0.3929330110549927
          -0.5938040018081665 -0.6810910105705261 0.428382009267807 -0.7215279936790466 -0.676190972328186 0.14887499809265137
          -0.6536980271339417 -0.7460119724273682 -0.12706400454044342 -0.5287719964981079 -0.7168759703636169 -0.45441100001335144
          -0.42788100242614746 -0.4351530075073242 -0.792186975479126 -0.3991219997406006 -0.5496010184288025 -0.7339209914207458
          -0.6007000207901001 -0.41263100504875183 -0.6847590208053589 -0.46200698614120483 -0.7302349805831909 0.5032950043678284
          0.07590200006961823 -0.9961320161819458 -0.04426199942827225 0.5075500011444092 -0.8593140244483948 0.06302499771118164
          0.41999998688697815 -0.9044849872589111 -0.07420799881219864 0.2549990117549896 -0.966933012008667 0.003996000159531832
          -0.014329000376164913 -0.999891996383667 0.0032629999332129955 -0.2323720008134842 -0.9693289995193481 0.08002699911594391
          -0.1459610015153885 -0.964559018611908 0.21981999278068542 -0.3345769941806793 -0.9165840148925781 0.21893399953842163
          -0.48461198806762695 -0.8064759969711304 0.33874401450157166 0.5678880214691162 -0.7635390162467957 0.3074280023574829
          0.5690360069274902 -0.8222939968109131 0.005646999925374985 0.5834109783172607 -0.7923060059547424 0.17855800688266754
          0.5786319971084595 -0.778672993183136 0.2425989955663681 0.6521829962730408 -0.6750379800796509 0.3449369966983795
          0.5666850209236145 -0.7863829731941223 0.2459069937467575 0.48274001479148865 -0.7734410166740417 0.4107939898967743
          0.6613590121269226 -0.6515570282936096 0.37158799171447754 0.4291580021381378 -0.7533950209617615 0.49821698665618896
          0.4712370038032532 -0.7331900000572205 0.49027299880981445 0.3874779939651489 -0.665444016456604 0.6380000114440918
          0.3213770091533661 -0.6480929851531982 0.6904289722442627 0.5558019876480103 -0.502767026424408 0.6620489954948425
          0.685030996799469 -0.44943100214004517 0.5733619928359985 0.43489500880241394 -0.6273850202560425 0.6459519863128662
          0.6891869902610779 -0.453110009431839 0.5654309988021851 0.7202100157737732 -0.4046249985694885 0.5635390281677246
          0.5843539834022522 -0.5936110019683838 0.5533139705657959 0.5426539778709412 -0.5878959894180298 0.5999209880828857
          0.5531359910964966 -0.5148670077323914 0.6549450159072876 0.5810009837150574 -0.494610995054245 0.6463729739189148
          0.7153630256652832 -0.6511560082435608 0.25347900390625 -0.5798270106315613 -0.4365150034427643 -0.687936007976532
          -0.6770049929618835 -0.5943790078163147 -0.43402600288391113 -0.581125020980835 -0.758059024810791 -0.29604199528694153
          -0.5837500095367432 -0.7302160263061523 -0.354993999004364 -0.6102799773216248 -0.5400630235671997 -0.5795599818229675
          -0.6623409986495972 -0.5663549900054932 -0.4904550015926361 -0.2112019956111908 -0.14117799699306488 -0.9671930074691772
          -0.0437140017747879 -0.2429479956626892 -0.9690539836883545 -0.42396798729896545 -0.22908900678157806 -0.8762249946594238
          -0.4636940062046051 0.07168900221586227 -0.8830900192260742 -0.19548399746418 -0.24289099872112274 -0.9501519799232483
          -0.6408920288085938 -0.3785429894924164 -0.6678040027618408 -0.6040310263633728 -0.2026280015707016 -0.7707710266113281
          -0.9323729872703552 0.09047000110149384 -0.3499940037727356 -0.7985349893569946 0.1543630063533783 -0.581820011138916
          -0.8922669887542725 -0.05654300004243851 -0.447953999042511 -0.778007984161377 0.001765000051818788 -0.6282510161399841
          -0.654350996017456 0.0034600000362843275 -0.7561830282211304 -0.3010070025920868 0.15940600633621216 -0.9402049779891968
          -0.23580899834632874 0.16890400648117065 -0.9570090174674988 -0.2577809989452362 0.0650240033864975 -0.9640129804611206
          -0.12578199803829193 0.1486230045557022 -0.980862021446228 -0.524150013923645 0.18030600249767303 -0.832319974899292
          -0.48162201046943665 0.22450800240039825 -0.847133994102478 -0.26181501150131226 0.3137969970703125 -0.9126799702644348
          -0.21721099317073822 0.3308570086956024 -0.9183430075645447 -0.6829580068588257 0.004941000137478113 -0.7304409742355347
          -0.2822220027446747 0.048785001039505005 -0.9581080079078674 -0.15803200006484985 0.049525000154972076 -0.9861909747123718
          0.07310300320386887 0.1376120001077652 -0.9877849817276001 0.3651230037212372 0.09607800096273422 -0.9259880185127258
          0.312593013048172 0.12528599798679352 -0.9415889978408813 0.703266978263855 -0.6191020011901855 0.3494679927825928
          0.813759982585907 -0.5641310214996338 0.13982300460338593 0.834892988204956 -0.5214030146598816 -0.1763319969177246
          0.8112180233001709 -0.4862990081310272 -0.3247140049934387 0.8998180031776428 -0.3425390124320984 -0.2701750099658966
          0.8143029808998108 -0.20161299407482147 -0.5443009734153748 0.5929570198059082 0.015027999877929688 -0.8050940036773682
          0.7407220005989075 0.02761100046336651 -0.6712449789047241 0.7713310122489929 0.001484000007621944 -0.6364319920539856
          0.5300589799880981 -0.13427600264549255 -0.837261974811554 0.5376740097999573 0.03901899978518486 -0.8422489762306213
          0.5234010219573975 -0.039955999702215195 -0.8511490225791931 0.46345001459121704 0.09226900339126587 -0.881305992603302
          0.4545530080795288 0.06035900115966797 -0.8886719942092896 0.4380820095539093 0.10134399682283401 -0.8932039737701416
          -0.655659019947052 -0.7081890106201172 0.2618759870529175 -0.6765750050544739 -0.7213109731674194 0.14817899465560913
          -0.7001410126686096 -0.711031973361969 0.06508500128984451 -0.5494300127029419 -0.7353969812393188 -0.39663299918174744
          -0.6400150060653687 -0.7541549801826477 -0.14707499742507935 -0.5408779978752136 -0.7238069772720337 -0.42843198776245117
          -0.3687700033187866 -0.6113349795341492 -0.7001979947090149 -0.30125999450683594 -0.47144201397895813 -0.8288450241088867
          0.1311659961938858 -0.9861220121383667 -0.10178200155496597 -0.06366900354623795 -0.9963170289993286 -0.057440001517534256
          0.5080940127372742 -0.8419970273971558 -0.18132999539375305 0.25244998931884766 -0.9606999754905701 -0.11542700231075287
          0.3639479875564575 -0.9163839817047119 -0.1666799932718277 -0.31092700362205505 -0.9478600025177002 0.06989599764347076
          -0.31995099782943726 -0.9447500109672546 0.07126999646425247 -0.5015320181846619 -0.8611289858818054 0.08320000022649765
          -0.5226050019264221 -0.8410279750823975 0.13984499871730804 0.5657119750976562 -0.7952790260314941 0.2179490029811859
          0.5972719788551331 -0.7877200245857239 0.15087400376796722 0.5480790138244629 -0.8148630261421204 -0.18870100378990173
          0.5724120140075684 -0.7951139807701111 -0.20034700632095337 0.5688760280609131 -0.8146290183067322 0.11296000331640244
          0.5619310140609741 -0.824865996837616 -0.06188099831342697 0.5688629746437073 -0.8135470151901245 0.12056100368499756
          0.5910840034484863 -0.8032519817352295 0.07353200018405914 0.5041840076446533 -0.8220970034599304 0.2644909918308258
          0.40940600633621216 -0.7355480194091797 0.5397740006446838 0.4563620090484619 -0.7679010033607483 0.4495120048522949
          0.44201400876045227 -0.8485530018806458 0.29082900285720825 0.5079759955406189 -0.6328250169754028 0.5843740105628967
          0.727977991104126 -0.5241339802742004 0.44196298718452454 0.8176270127296448 -0.41421300172805786 0.39989200234413147
          0.853717029094696 -0.3318279981613159 0.4013200104236603 0.8210449814796448 -0.4644260108470917 0.3319540023803711
          0.8509730100631714 -0.2763189971446991 0.44664499163627625 0.6448709964752197 -0.49229899048805237 0.5846229791641235
          0.797586977481842 -0.3075529932975769 0.5189080238342285 0.8523300290107727 -0.24103400111198425 0.464150995016098