<?xml version="1.0"?>
<VTKFile type="PolyData" version="0.1" byte_order="LittleEndian" header_type="UInt32" compressor="vtkZLibDataCompressor">
  <PolyData>
    <Piece NumberOfPoints="68" NumberOfVerts="0" NumberOfLines="0" NumberOfStrips="0" NumberOfPolys="132">
      <PointData Normals="Normals">
        <DataArray type="Float32" Name="Normals" NumberOfComponents="3" format="ascii" RangeMin="0.9999993908813952" RangeMax="1.0000005922140844">
          -0.17235499620437622 -0.8470619916915894 0.5027719736099243 0.40392300486564636 -0.8933659791946411 0.196834996342659
          0.8046330213546753 -0.5211949944496155 0.2844659984111786 0.3067860007286072 -0.6860309839248657 0.6597300171852112
          -0.22680500149726868 -0.8362039923667908 0.49932199716567993 -0.3228360116481781 -0.7192990183830261 0.6151300072669983
          0.10008300095796585 -0.9929280281066895 0.06384900212287903 -0.050749000161886215 -0.89205402135849 0.449070006608963
          0.8647379875183105 -0.48280099034309387 -0.1383190006017685 0.9984610080718994 -0.05441400036215782 -0.010742000304162502
          0.6637399792671204 -0.5175439715385437 0.5399979948997498 0.812067985534668 -0.2559269964694977 0.5244500041007996
          0.16502800583839417 -0.6744660139083862 0.7196249961853027 -0.22896400094032288 -0.6869950294494629 0.6896479725837708
          0.23215700685977936 -0.810293972492218 0.5380769968032837 0.2447959929704666 -0.9078279733657837 0.340474009513855
          -0.17278799414634705 -0.6806179881095886 0.7119719982147217 0.7241259813308716 -0.4578000009059906 -0.5158100128173828
          0.22142699360847473 -0.9376890063285828 -0.2677859961986542 0.533249020576477 -0.8111799955368042 0.24006900191307068
          0.11777400225400925 -0.9652460217475891 -0.23330099880695343 0.08852200210094452 -0.9959489703178406 -0.015821000561118126
          0.7965970039367676 0.21264800429344177 -0.5658739805221558 0.908519983291626 0.4137760102748871 0.058139000087976456
          0.3686999976634979 -0.3695169985294342 0.8529469966888428 0.7544490098953247 0.30399900674819946 0.5817139744758606
          -0.45895200967788696 -0.10184399783611298 0.8826050162315369 -0.1757649928331375 0.1957699954509735 0.9647700190544128
          0.17728200554847717 -0.5960339903831482 0.7831439971923828 0.5547710061073303 -0.6606760025024414 0.5057029724121094
          0.5410419702529907 -0.32583698630332947 -0.7753090262413025 0.10584399849176407 -0.6398400068283081 -0.7611849904060364
          -0.2827729880809784 -0.9572839736938477 -0.06039400026202202 0.6045230031013489 -0.7171339988708496 0.3468010127544403
          -0.3018690049648285 -0.3956339955329895 -0.8673809766769409 -0.6748539805412292 -0.09854499995708466 -0.7313420176506042
          -0.718172013759613 -0.6715610027313232 -0.1823049932718277 0.6541950106620789 0.6608890295028687 -0.3677699863910675
          0.23829300701618195 0.9012659788131714 -0.36184999346733093 0.1995300054550171 0.37726300954818726 -0.9043560028076172
          0.16756300628185272 0.7197930216789246 -0.673662006855011 0.21003100275993347 -0.024677999317646027 -0.977383017539978
          0.4573340117931366 0.7996810078620911 0.3890460133552551 0.4411590099334717 0.8972610235214233 0.017361000180244446
          -0.6142629981040955 0.7586190104484558 0.2172050029039383 -0.3062629997730255 0.34578099846839905 0.886925995349884
          -0.20336900651454926 0.9579079747200012 0.20261600613594055 0.3372339904308319 0.052622001618146896 0.9399489760398865
          -0.15508399903774261 -0.9364989995956421 0.3145120143890381 -0.9290030002593994 -0.35305899381637573 -0.11091499775648117
          -0.9890599846839905 -0.01910099945962429 -0.14627200365066528 -0.8507999777793884 -0.4875819981098175 0.19596800208091736
          0.6012439727783203 -0.5035769939422607 0.6204149723052979 -0.39413800835609436 0.21856600046157837 -0.8926839828491211
          -0.938031017780304 -0.31040000915527344 -0.15410800278186798 -0.8415250182151794 0.23860399425029755 -0.4846689999103546
          -0.6327099800109863 0.5713629722595215 -0.5227069854736328 -0.42135199904441833 0.859794020652771 -0.2884739935398102
          -0.25165998935699463 0.5211640000343323 -0.8155099749565125 -0.29021599888801575 0.70489501953125 -0.6472229957580566
          -0.678862988948822 0.698399007320404 0.22668200731277466 -0.7972450256347656 0.5461540222167969 -0.25713101029396057
          0.04981900006532669 0.7578219771385193 0.6505569815635681 -0.829023003578186 0.5405550003051758 0.14325499534606934
          -0.5495010018348694 -0.49261799454689026 0.6748149991035461 -0.8783569931983948 0.47650399804115295 0.037845999002456665
          -0.9856809973716736 -0.11763100326061249 -0.12081000208854675 0.19616399705410004 0.5924509763717651 0.7813590168952942
          <InformationKey name="L2_NORM_RANGE" location="vtkDataArray" length="2">
            <Value index="0">
              0.99999939088
            </Value>
            <Value index="1">
              1.0000005922
            </Value>
          </InformationKey>
        </DataArray>
      </PointData>
      <CellData>
      </CellData>
      <Points>
        <DataArray type="Float32" Name="Points" NumberOfComponents="3" format="ascii" RangeMin="0.0015722280557472648" RangeMax="0.0179711579537691">
          0.004989999812096357 -0.007899000309407711 -0.00433199992403388 0.004550999961793423 -0.009215000085532665 -0.0078039998188614845
          0.006941999774426222 -0.005752000026404858 -0.003261999925598502 0.006033000070601702 -0.004796000197529793 -0.00042699999175965786
          0.002157999901100993 -0.005212000105530024 -0.003513999981805682 0.0040420000441372395 -0.004393000155687332 -0.0010849999962374568
          0.0031129999551922083 -0.00977300014346838 -0.011045999825000763 -0.0005779999773949385 -0.007110999897122383 -0.009212999604642391
          0.0064039998687803745 -0.007792999967932701 -0.008042000234127045 0.007613999769091606 -0.00203699991106987 -0.0034469999372959137
          0.006341999862343073 -0.003671000013127923 0.00009300000237999484 0.006544000003486872 -0.002500999951735139 0.0011220000451430678
          0.00585799990221858 -0.0031159999780356884 0.0009830000344663858 -0.000299000006634742 -0.0031769999768584967 -0.0016850000247359276
          -0.0018269999418407679 -0.005570999812334776 -0.004184999968856573 -0.0010319999419152737 -0.006029000040143728 -0.00597799988463521
          0.004786999896168709 -0.0019130000146105886 0.0021860001143068075 0.005024000070989132 -0.008321999572217464 -0.010712999850511551
          0.001145999995060265 -0.009879999794065952 -0.0128370001912117 -0.006068000104278326 -0.008868999779224396 -0.0059819999150931835
          -0.003959000110626221 -0.010356999933719635 -0.013294000178575516 -0.0012390000047162175 -0.009940000250935555 -0.013496999628841877
          0.006155999843031168 -0.002217999892309308 -0.0096220001578331 0.007499000057578087 0.00020799999765586108 -0.0034680000972002745
          0.005355000030249357 -0.0018420000560581684 0.0022499999031424522 0.005919999908655882 -0.0004659999976865947 0.001626000041142106
          -0.0007789999945089221 -0.0012880000285804272 -0.00045399999362416565 0.0037120000924915075 -0.00011100000119768083 0.003237999975681305
          -0.0024510000366717577 -0.004004000220447779 -0.002572000026702881 -0.003713000100106001 -0.0067980000749230385 -0.0042329998686909676
          0.0010710000060498714 -0.00810999982059002 -0.015062999911606312 -0.0011840000515803695 -0.00836700014770031 -0.015727000311017036
          -0.007919000461697578 -0.010191000066697598 -0.005714999977499247 -0.00824000034481287 -0.010452999733388424 -0.0019120000069960952
          -0.0034149999264627695 -0.00736499996855855 -0.016032999381422997 -0.006550999823957682 -0.006564000155776739 -0.01434400025755167
          -0.007613999769091606 -0.01166599988937378 -0.010857000015676022 0.005113000050187111 0.002271000063046813 -0.007104999851435423
          0.0019030000548809767 0.003544999985024333 -0.00824700016528368 -0.0007970000151544809 -0.0030360000673681498 -0.015591000206768513
          0.0014560000272467732 0.0019239999819546938 -0.01183400023728609 -0.0017900000093504786 -0.005907000042498112 -0.01664699986577034
          0.005204000044614077 0.001386999967508018 0.0005080000264570117 0.004310000222176313 0.0031999999191612005 -0.0053519997745752335
          -0.005241999868303537 0.00060299999313429 -0.007437000051140785 -0.0029349999967962503 -0.0021210000850260258 -0.0013539999490603805
          0.0003220000071451068 0.00381499994546175 -0.004819000139832497 -0.006765999831259251 -0.0050570000894367695 -0.0006040000007487833
          -0.009549999609589577 -0.010867999866604805 -0.0014130000490695238 -0.010716999880969524 -0.009417999535799026 -0.001234999974258244
          -0.010223999619483948 -0.005679000169038773 -0.005619999952614307 -0.008294999599456787 -0.008930999785661697 -0.009302999824285507
          -0.00941499974578619 -0.00967200007289648 -0.0001140000022132881 -0.0037529999390244484 -0.005716000217944384 -0.016228999942541122
          -0.008907999843358994 -0.008833999745547771 -0.010165000334382057 -0.008271999657154083 -0.005152000114321709 -0.0114120002835989
          -0.005537999793887138 -0.0008379999781027436 -0.011710000224411488 -0.0038320000749081373 0.0015839999541640282 -0.009731999598443508
          -0.0028959999326616526 -0.002621999941766262 -0.015122000128030777 -0.002234000014141202 0.00013099999341648072 -0.013306999579071999
          -0.007745000068098307 -0.0014149999478831887 -0.006819999776780605 -0.007488999981433153 -0.0015780000248923898 -0.009417000226676464
          -0.00814099982380867 -0.006093000061810017 0.0006290000164881349 -0.01056000031530857 -0.006233000196516514 -0.0027089999057352543
          -0.010533000342547894 -0.007362000178545713 0.0026829999405890703 -0.011090000160038471 -0.007687999866902828 -0.0003100000030826777
          -0.00976100005209446 -0.006814999971538782 -0.008669000118970871 -0.009717999957501888 -0.0064130001701414585 0.0023360000923275948
          <InformationKey name="L2_NORM_RANGE" location="vtkDataArray" length="2">
            <Value index="0">
              0.0015722280557
            </Value>
            <Value index="1">
              0.017971157954
            </Value>
          </InformationKey>
        </DataArray>
      </Points>
      <Verts>
        <DataArray type="Int64" Name="connectivity" format="ascii" RangeMin="1e+299" RangeMax="-1e+299">
        </DataArray>
        <DataArray type="Int64" Name="offsets" format="ascii" RangeMin="1e+299" RangeMax="-1e+299">
        </DataArray>
      </Verts>
      <Lines>
        <DataArray type="Int64" Name="connectivity" format="ascii" RangeMin="1e+299" RangeMax="-1e+299">
        </DataArray>
        <DataArray type="Int64" Name="offsets" format="ascii" RangeMin="1e+299" RangeMax="-1e+299">
        </DataArray>
      </Lines>
      <Strips>
        <DataArray type="Int64" Name="connectivity" format="ascii" RangeMin="1e+299" RangeMax="-1e+299">
        </DataArray>
        <DataArray type="Int64" Name="offsets" format="ascii" RangeMin="1e+299" RangeMax="-1e+299">
        </DataArray>
      </Strips>
      <Polys>
        <DataArray type="Int32" Name="connectivity" format="ascii" RangeMin="0" RangeMax="67">
          0 1 2 0 2 3
          4 0 5 5 0 3
          1 0 6 0 7 6
          7 0 4 8 1 6
          2 1 8 2 8 9
          2 10 3 2 11 10
          11 2 9 5 3 12
          10 12 3 4 5 13
          14 4 13 4 14 15
          4 15 7 13 5 16
          5 12 16 8 6 17
          18 17 6 18 6 7
          19 7 15 20 7 19
          21 18 7 20 21 7
          8 17 22 9 8 22
          11 9 23 22 23 9
          11 12 10 11 24 12
          25 24 11 23 25 11
          16 12 24 26 13 27
          13 16 27 28 13 26
          28 14 13 29 14 28
          14 29 19 19 15 14
          16 24 27 17 30 22
          18 30 17 30 18 31
          18 21 31 32 19 33
          29 33 19 20 19 32
          20 34 31 34 20 35
          20 31 21 35 20 36
          20 32 36 22 37 23
          22 38 37 39 40 22
          39 22 41 22 30 41
          40 38 22 42 25 23
          37 43 23 43 42 23
          24 25 27 42 27 25
          44 26 27 45 26 44
          26 45 28 42 46 27
          46 44 27 47 28 45
          47 29 28 33 29 47
          31 41 30 34 41 31
          48 49 32 32 50 51
          49 50 32 36 32 51
          48 32 33 47 52 33
          48 33 52 34 35 53
          41 34 53 54 55 35
          35 55 56 35 56 53
          36 54 35 54 36 51
          37 38 43 38 46 43
          57 46 38 57 38 40
          39 58 40 58 39 53
          39 41 53 59 40 58
          40 59 57 42 43 46
          60 44 61 57 56 44
          61 44 56 46 57 44
          60 45 44 47 45 60
          62 47 63 60 63 47
          47 62 52 64 49 48
          64 48 52 63 50 49
          63 49 65 65 49 64
          50 61 66 51 50 66
          50 63 60 61 50 60
          51 66 54 62 67 52
          64 52 67 58 53 56
          55 54 66 61 56 55
          66 61 55 59 58 56
          56 57 59 62 65 67
          65 62 63 67 65 64
        </DataArray>
        <DataArray type="Int32" Name="offsets" format="ascii" RangeMin="3" RangeMax="396">
          3 6 9 12 15 18
          21 24 27 30 33 36
          39 42 45 48 51 54
          57 60 63 66 69 72
          75 78 81 84 87 90
          93 96 99 102 105 108
          111 114 117 120 123 126
          129 132 135 138 141 144
          147 150 153 156 159 162
          165 168 171 174 177 180
          183 186 189 192 195 198
          201 204 207 210 213 216
          219 222 225 228 231 234
          237 240 243 246 249 252
          255 258 261 264 267 270
          273 276 279 282 285 288
          291 294 297 300 303 306
          309 312 315 318 321 324
          327 330 333 336 339 342
          345 348 351 354 357 360
          363 366 369 372 375 378
          381 384 387 390 393 396
        </DataArray>
      </Polys>
    </Piece>
  </PolyData>
</VTKFile>
