<?xml version="1.0"?>
<VTKFile type="PolyData" version="0.1" byte_order="LittleEndian" header_type="UInt32" compressor="vtkZLibDataCompressor">
  <PolyData>
    <Piece NumberOfPoints="90" NumberOfVerts="0" NumberOfLines="0" NumberOfStrips="0" NumberOfPolys="176">
      <PointData Normals="Normals">
        <DataArray type="Float32" Name="Normals" NumberOfComponents="3" format="ascii" RangeMin="0.999999320144999" RangeMax="1.0000006890242368">
          -0.4906949996948242 -0.3305869996547699 0.8061829805374146 -0.2998799979686737 -0.73369300365448 0.6097270250320435
          -0.7123739719390869 -0.09091100096702576 0.69588702917099 -0.20398999750614166 -0.7046930193901062 0.6795549988746643
          -0.5218700170516968 -0.397022008895874 0.7549999952316284 -0.7226269841194153 0.2315710037946701 0.651295006275177
          -0.4352419972419739 -0.8683930039405823 -0.23760800063610077 -0.8333340287208557 -0.4779750108718872 0.27765798568725586
          -0.09280499815940857 -0.9124869704246521 0.39844098687171936 -0.035578999668359756 -0.9489120244979858 -0.31352800130844116
          -0.9441490173339844 0.32927000522613525 -0.012752999551594257 -0.12430799752473831 -0.4980199933052063 0.8582090139389038
          -0.2403080016374588 0.21136300265789032 0.947405993938446 -0.6177189946174622 0.7198759913444519 0.3165450096130371
          -0.7569119930267334 0.6454520225524902 0.10234600305557251 -0.8253970146179199 -0.3767710030078888 -0.42043301463127136
          -0.5209400057792664 -0.4566110074520111 -0.7211989760398865 -0.09428399801254272 -0.574770987033844 -0.8128650188446045
          0.0819069966673851 -0.7890310287475586 0.6088690161705017 0.02813499979674816 -0.9986730217933655 0.04312499985098839
          -0.028098000213503838 -0.5505120158195496 -0.8343539834022522 0.17347800731658936 -0.11760199815034866 -0.9777910113334656
          -0.6553940176963806 0.2586610019207001 -0.7096149921417236 -0.3656890094280243 0.7604069709777832 -0.5367050170898438
          0.18031999468803406 0.02104399912059307 0.9833829998970032 -0.14026400446891785 0.932220995426178 0.3336009979248047
          -0.05183300003409386 0.6268889904022217 -0.7773820161819458 -0.07075200229883194 0.2580159902572632 -0.9635459780693054
          0.18717700242996216 0.20979300141334534 -0.9596620202064514 0.21808600425720215 -0.6052449941635132 0.7655829787254333
          -0.17744199931621552 -0.9740149974822998 -0.14074599742889404 -0.029425999149680138 -0.7847210168838501 0.6191499829292297
          -0.3015129864215851 -0.31834301352500916 -0.898747980594635 0.11854299902915955 0.44902101159095764 -0.8856229782104492
          -0.016491999849677086 0.5869709849357605 -0.809440016746521 0.22990599274635315 0.7949960231781006 0.5613600015640259
          0.25703099370002747 0.1176220029592514 0.9592180252075195 0.1290149986743927 0.8317300081253052 -0.5399810075759888
          0.2966279983520508 -0.10407999902963638 0.94930499792099 -0.2569830119609833 -0.9663990139961243 0.005770000163465738
          0.1518770009279251 -0.24588899314403534 0.9573259949684143 -0.2420700043439865 -0.8204529881477356 0.5179370045661926
          -0.4137299954891205 -0.7764800190925598 -0.4752959907054901 0.14409799873828888 0.8167129755020142 -0.5587620139122009
          -0.21582700312137604 0.3642689883708954 -0.9059399962425232 -0.3204309940338135 0.7001270055770874 -0.6380789875984192
          -0.5181630253791809 -0.4920099973678589 -0.6995949745178223 -0.60384601354599 -0.04738299921154976 -0.7956920266151428
          0.37354499101638794 0.9174349904060364 -0.1370290070772171 0.4121539890766144 0.5425819754600525 0.7319380044937134
          0.37194299697875977 0.6746199727058411 0.6376100182533264 0.15256699919700623 0.07326000183820724 0.9855740070343018
          0.010324000380933285 -0.5211470127105713 0.8534039855003357 -0.21165400743484497 -0.9325240254402161 0.29257699847221375
          -0.4614419937133789 -0.7954390048980713 -0.39287298917770386 0.3192470073699951 0.9475809931755066 -0.013109000399708748
          0.12502099573612213 0.8363010287284851 -0.5338259935379028 -0.3181999921798706 0.7186059951782227 -0.6183480024337769
          -0.6795750260353088 0.06192599982023239 -0.7309880256652832 0.22466200590133667 0.9567729830741882 -0.1846970021724701
          0.09410899877548218 0.9664170145988464 -0.2391269952058792 -0.36226600408554077 -0.48141399025917053 -0.7981250286102295
          -0.45418500900268555 -0.431335985660553 -0.7795289754867554 0.3545039892196655 0.7935469746589661 0.49458199739456177
          0.3898249864578247 0.0353970006108284 0.9202079772949219 0.2718470096588135 -0.290132999420166 0.9175630211830139
          0.06236099824309349 -0.8520380258560181 0.519752025604248 -0.1465110033750534 -0.9857100248336792 0.08312699943780899
          -0.39533600211143494 -0.7817509770393372 -0.48225900530815125 -0.25562700629234314 0.18300700187683105 -0.9492959976196289
          0.7237870097160339 0.6684039831161499 0.17137199640274048 0.09580600261688232 0.8103920221328735 -0.5780010223388672
          0.3734529912471771 0.133775994181633 -0.9179530143737793 0.39008501172065735 -0.4055210053920746 -0.8266720175743103
          -0.16669000685214996 -0.5932080149650574 -0.7876030206680298 0.5146170258522034 0.3458400070667267 0.7845789790153503
          0.5701019763946533 0.09504800289869308 0.816057026386261 0.3715499937534332 -0.25769299268722534 0.891933023929596
          -0.2932099997997284 -0.9008079767227173 0.32026898860931396 -0.03631800040602684 -0.9354450106620789 0.3516010046005249
          -0.3872300088405609 -0.8892580270767212 0.2434609979391098 -0.10510499775409698 -0.9444069862365723 -0.31152600049972534
          0.9345380067825317 -0.08641400188207626 -0.34521400928497314 0.8713619709014893 0.07715299725532532 0.48453599214553833
          0.4018790125846863 -0.677573025226593 -0.6159449815750122 0.8266980051994324 -0.5395169854164124 -0.1596599966287613
          0.623665988445282 -0.17841899394989014 0.7610570192337036 0.517661988735199 -0.7189670205116272 0.4638029932975769
          0.4181919991970062 -0.8944159746170044 -0.15853999555110931 0.8542230129241943 -0.37651699781417847 0.35852301120758057
          <InformationKey name="L2_NORM_RANGE" location="vtkDataArray" length="2">
            <Value index="0">
              0.99999932014
            </Value>
            <Value index="1">
              1.000000689
            </Value>
          </InformationKey>
        </DataArray>
      </PointData>
      <CellData>
      </CellData>
      <Points>
        <DataArray type="Float32" Name="Points" NumberOfComponents="3" format="ascii" RangeMin="0.0802215288507222" RangeMax="0.1466028233403175">
          0.07586999982595444 0.012508000247180462 -0.03015200048685074 0.07737100124359131 0.009441999718546867 -0.031046999618411064
          0.07299599796533585 0.012880000285804272 -0.031838998198509216 0.07891300320625305 0.011215999722480774 -0.029927000403404236
          0.08153200149536133 0.012767000123858452 -0.02490600012242794 0.07276500016450882 0.014964999631047249 -0.032600998878479004
          0.07531700283288956 0.009820999577641487 -0.03365100175142288 0.07212799787521362 0.011843999847769737 -0.03305700048804283
          0.08367499709129333 0.008597999811172485 -0.03245500102639198 0.0809440016746521 0.008407000452280045 -0.033344998955726624
          0.0718189999461174 0.014306999742984772 -0.03476300090551376 0.08421999961137772 0.012350999750196934 -0.024282999336719513
          0.08316799998283386 0.01451599970459938 -0.024013999849557877 0.0778840035200119 0.020515000447630882 -0.03132300078868866
          0.07349299639463425 0.01682399958372116 -0.032993998378515244 0.07193300127983093 0.01296900026500225 -0.03511299937963486
          0.07334200292825699 0.01321600005030632 -0.03702300041913986 0.07676000148057938 0.011222000233829021 -0.03757600113749504
          0.08868400007486343 0.010599999688565731 -0.02498999983072281 0.09110599756240845 0.00901199970394373 -0.03213699907064438
          0.09189999848604202 0.010985000059008598 -0.035395000129938126 0.08772099763154984 0.011889999732375145 -0.035714998841285706
          0.07332900166511536 0.01457700040191412 -0.037342000752687454 0.07651399821043015 0.018874000757932663 -0.03385100141167641
          0.09281899780035019 0.01227600034326315 -0.025237999856472015 0.08359599858522415 0.02371400035917759 -0.029683999717235565
          0.08021099865436554 0.018689999356865883 -0.03563399985432625 0.07629500329494476 0.014314999803900719 -0.03833099827170372
          0.08055000007152557 0.014123000204563141 -0.03750399872660637 0.09526199847459793 0.011521000415086746 -0.026686999946832657
          0.09879499673843384 0.008396999910473824 -0.03260499984025955 0.10397999733686447 0.00853700004518032 -0.031077999621629715
          0.11414899677038193 0.006031000055372715 -0.0364300012588501 0.08748999983072281 0.02060599997639656 -0.03374600037932396
          0.07779599726200104 0.015549000352621078 -0.036945998668670654 0.09240599721670151 0.02283800020813942 -0.029225999489426613
          0.09779399633407593 0.01523599959909916 -0.026562999933958054 0.08889500051736832 0.02319899946451187 -0.03136000037193298
          0.09938299655914307 0.013133999891579151 -0.02698799967765808 0.11825600266456604 0.0035119999665766954 -0.03512199968099594
          0.1128539964556694 0.008400999940931797 -0.031158000230789185 0.12152399867773056 0.002985999919474125 -0.03485099971294403
          0.12275099754333496 0.0027620000764727592 -0.03819100186228752 0.11084900051355362 0.01564900018274784 -0.03441900014877319
          0.12259399890899658 0.009252999909222126 -0.039083998650312424 0.12760299444198608 0.008558999747037888 -0.040849000215530396
          0.1256909966468811 0.0037350000347942114 -0.04007299989461899 0.12545500695705414 0.0052999998442828655 -0.040897998958826065
          0.09801200032234192 0.02000799961388111 -0.030553000047802925 0.09953200072050095 0.018231000751256943 -0.02827499993145466
          0.11074099689722061 0.015383999794721603 -0.032517001032829285 0.1250160038471222 0.007691999897360802 -0.03328299894928932
          0.12836399674415588 0.000534999999217689 -0.03411699831485748 0.12959299981594086 -0.0005639999872073531 -0.03569899871945381
          0.1285489946603775 -0.0009430000209249556 -0.03939000144600868 0.11746200174093246 0.013577999547123909 -0.03493500128388405
          0.12310100346803665 0.01107800006866455 -0.037696000188589096 0.12853200733661652 0.008256999775767326 -0.04320099949836731
          0.12721200287342072 0.005601000040769577 -0.04320700094103813 0.12855499982833862 0.009456999599933624 -0.03803899884223938
          0.13411100208759308 0.008163999766111374 -0.042451001703739166 0.1315390020608902 0.0015569999814033508 -0.04318400099873543
          0.12926700711250305 0.0037690000608563423 -0.04419900104403496 0.12856599688529968 0.00936300028115511 -0.035916998982429504
          0.13279299437999725 0.004021999891847372 -0.03421600162982941 0.13086800277233124 0.0028540000785142183 -0.03434799984097481
          0.13233399391174316 -0.0011749999830499291 -0.03668399900197983 0.1325799971818924 -0.0018759999657049775 -0.040862999856472015
          0.13349300622940063 -0.0017740000039339066 -0.04194699972867966 0.13419599831104279 0.005491999909281731 -0.0458419993519783
          0.1401599943637848 0.005524999927729368 -0.04085899889469147 0.13548000156879425 0.006994000170379877 -0.04538299888372421
          0.13760100305080414 0.0051819998770952225 -0.04628700017929077 0.13811799883842468 0.0012120000319555402 -0.04522699862718582
          0.135684996843338 -0.0007360000163316727 -0.04394900053739548 0.13304300606250763 0.005431999918073416 -0.03484499827027321
          0.1351419985294342 0.003957000095397234 -0.036545999348163605 0.13505999743938446 0.0009840000420808792 -0.0357699990272522
          0.13435600697994232 -0.0015640000347048044 -0.04024000093340874 0.13553500175476074 -0.0022239999379962683 -0.03935199975967407
          0.1342560052871704 -0.0021689999848604202 -0.04103799909353256 0.13499799370765686 -0.0026279999874532223 -0.04183100163936615
          0.1402450054883957 0.002445999998599291 -0.0426350012421608 0.14058099687099457 0.0037640000227838755 -0.03948599845170975
          0.13812899589538574 -0.0004349999944679439 -0.043811000883579254 0.13909900188446045 -0.0009619999909773469 -0.04149400070309639
          0.13908100128173828 0.0009490000084042549 -0.037960998713970184 0.13861200213432312 -0.0008200000156648457 -0.03853899985551834
          0.13787199556827545 -0.00165200000628829 -0.042399000376462936 0.1395989954471588 0.0003490000090096146 -0.038830000907182693
          <InformationKey name="L2_NORM_RANGE" location="vtkDataArray" length="2">
            <Value index="0">
              0.080221528851
            </Value>
            <Value index="1">
              0.14660282334
            </Value>
          </InformationKey>
        </DataArray>
      </Points>
      <Verts>
        <DataArray type="Int64" Name="connectivity" format="ascii" RangeMin="1e+299" RangeMax="-1e+299">
        </DataArray>
        <DataArray type="Int64" Name="offsets" format="ascii" RangeMin="1e+299" RangeMax="-1e+299">
        </DataArray>
      </Verts>
      <Lines>
        <DataArray type="Int64" Name="connectivity" format="ascii" RangeMin="1e+299" RangeMax="-1e+299">
        </DataArray>
        <DataArray type="Int64" Name="offsets" format="ascii" RangeMin="1e+299" RangeMax="-1e+299">
        </DataArray>
      </Lines>
      <Strips>
        <DataArray type="Int64" Name="connectivity" format="ascii" RangeMin="1e+299" RangeMax="-1e+299">
        </DataArray>
        <DataArray type="Int64" Name="offsets" format="ascii" RangeMin="1e+299" RangeMax="-1e+299">
        </DataArray>
      </Strips>
      <Polys>
        <DataArray type="Int32" Name="connectivity" format="ascii" RangeMin="0" RangeMax="89">
          2 1 0 0 1 3
          4 0 3 5 0 4
          2 0 5 1 7 6
          3 1 8 9 1 6
          9 8 1 7 1 2
          5 10 2 10 7 2
          4 3 8 4 8 11
          4 11 12 13 5 4
          13 4 12 10 5 14
          13 14 5 6 7 15
          6 15 16 6 16 17
          17 9 6 10 15 7
          8 18 11 19 18 8
          8 9 19 20 19 9
          21 20 9 21 9 17
          10 23 22 10 22 15
          14 23 10 18 24 11
          24 12 11 13 12 25
          25 12 24 26 13 25
          13 23 14 23 13 26
          16 15 22 22 27 16
          27 17 16 17 28 21
          17 27 28 18 29 24
          19 29 18 19 20 30
          31 29 19 30 31 19
          32 30 20 33 32 20
          21 33 20 21 26 33
          21 28 26 22 23 27
          34 23 26 23 34 27
          24 36 35 29 36 24
          35 25 24 37 25 35
          37 26 25 28 34 26
          33 26 37 34 28 27
          31 38 29 29 38 36
          39 31 30 30 32 39
          38 31 40 39 41 31
          31 41 40 39 32 42
          44 32 43 43 32 33
          44 45 32 42 32 46
          47 32 45 47 46 32
          48 33 37 33 48 43
          48 37 35 49 48 35
          49 35 36 49 36 38
          50 38 40 49 38 50
          39 42 41 40 51 50
          41 51 40 41 53 52
          53 41 54 51 41 52
          41 42 54 46 54 42
          55 43 50 50 43 48
          56 44 43 56 43 55
          56 45 44 58 45 57
          60 45 59 45 60 57
          47 45 58 59 45 56
          46 47 58 61 54 46
          46 62 61 62 46 58
          49 50 48 63 55 50
          63 50 51 64 63 51
          65 51 52 64 51 65
          52 66 65 53 66 52
          66 53 67 54 67 53
          67 54 68 54 61 68
          56 55 59 59 55 63
          69 57 60 58 57 69
          62 58 69 63 60 59
          60 63 70 60 71 69
          70 71 60 69 72 61
          74 61 73 73 61 72
          68 61 74 62 69 61
          70 63 75 63 64 75
          64 65 76 76 75 64
          66 77 65 76 65 77
          79 66 78 66 67 78
          79 77 66 80 78 67
          80 67 68 81 80 68
          74 81 68 71 72 69
          76 70 75 70 83 82
          83 70 76 82 72 70
          70 72 71 82 73 72
          85 84 73 82 85 73
          74 73 84 81 74 84
          76 77 83 83 77 86
          87 77 79 77 87 86
          79 78 80 81 79 80
          88 87 79 81 88 79
          88 81 84 83 85 82
          89 85 83 86 89 83
          85 88 84 87 85 89
          88 85 87 86 87 89
        </DataArray>
        <DataArray type="Int32" Name="offsets" format="ascii" RangeMin="3" RangeMax="528">
          3 6 9 12 15 18
          21 24 27 30 33 36
          39 42 45 48 51 54
          57 60 63 66 69 72
          75 78 81 84 87 90
          93 96 99 102 105 108
          111 114 117 120 123 126
          129 132 135 138 141 144
          147 150 153 156 159 162
          165 168 171 174 177 180
          183 186 189 192 195 198
          201 204 207 210 213 216
          219 222 225 228 231 234
          237 240 243 246 249 252
          255 258 261 264 267 270
          273 276 279 282 285 288
          291 294 297 300 303 306
          309 312 315 318 321 324
          327 330 333 336 339 342
          345 348 351 354 357 360
          363 366 369 372 375 378
          381 384 387 390 393 396
          399 402 405 408 411 414
          417 420 423 426 429 432
          435 438 441 444 447 450
          453 456 459 462 465 468
          471 474 477 480 483 486
          489 492 495 498 501 504
          507 510 513 516 519 522
          525 528
        </DataArray>
      </Polys>
    </Piece>
  </PolyData>
</VTKFile>
