<?xml version="1.0"?>
<VTKFile type="PolyData" version="0.1" byte_order="LittleEndian" header_type="UInt32" compressor="vtkZLibDataCompressor">
  <PolyData>
    <Piece NumberOfPoints="90" NumberOfVerts="0" NumberOfLines="0" NumberOfStrips="0" NumberOfPolys="176">
      <PointData Normals="Normals">
        <DataArray type="Float32" Name="Normals" NumberOfComponents="3" format="ascii" RangeMin="0.9999993593893941" RangeMax="1.0000006519579554">
          -0.4907020032405853 -0.3305929899215698 -0.8061760067939758 -0.29988500475883484 -0.7336969971656799 -0.60971999168396
          -0.7123749852180481 -0.09092599898576736 -0.6958839893341064 -0.20399600267410278 -0.704695999622345 -0.6795499920845032
          -0.5218769907951355 -0.39701899886131287 -0.7549970149993896 -0.7226279973983765 0.2315569967031479 -0.651298999786377
          -0.4352410137653351 -0.8683949708938599 0.23760400712490082 -0.833329975605011 -0.4779700040817261 -0.2776789963245392
          -0.09280899912118912 -0.9124860167503357 -0.39844098687171936 -0.03557800129055977 -0.9489120244979858 0.31352901458740234
          -0.9441480040550232 0.3292759954929352 0.012737000361084938 -0.12431299686431885 -0.4980179965496063 -0.858210027217865
          -0.24031099677085876 0.21136699616909027 -0.9474040269851685 -0.6177210211753845 0.7198740243911743 -0.3165470063686371
          -0.7569140195846558 0.6454489827156067 -0.10235700011253357 -0.8254010081291199 -0.3767690062522888 0.42042601108551025
          -0.5209239721298218 -0.45661601424217224 0.7212079763412476 -0.09428499639034271 -0.5747720003128052 0.8128640055656433
          0.08191400021314621 -0.7890340089797974 -0.6088629961013794 0.02813499979674816 -0.9986730217933655 -0.04313499853014946
          -0.028098000213503838 -0.5505049824714661 0.8343589901924133 0.17348000407218933 -0.11760199815034866 0.9777910113334656
          -0.6553859710693359 0.2586649954319 0.709621012210846 -0.3656870126724243 0.7604079842567444 0.5367059707641602
          0.1803250014781952 0.02104100026190281 -0.983381986618042 -0.14026300609111786 0.9322199821472168 -0.33360400795936584
          -0.051833998411893845 0.626891016960144 0.7773810029029846 -0.07075300067663193 0.2580159902572632 0.9635459780693054
          0.187172994017601 0.2097959965467453 0.9596629738807678 0.21808600425720215 -0.6052529811859131 -0.7655770182609558
          -0.1774429976940155 -0.974016010761261 0.14073899388313293 -0.029426999390125275 -0.7847139835357666 -0.6191589832305908
          -0.3015129864215851 -0.31834399700164795 0.898747980594635 0.11854100227355957 0.44901901483535767 0.8856239914894104
          -0.016495000571012497 0.5869759917259216 0.809436023235321 0.22990599274635315 0.794992983341217 -0.5613639950752258
          0.2570360004901886 0.11761999875307083 -0.9592170119285583 0.1290140002965927 0.8317319750785828 0.5399789810180664
          0.29662901163101196 -0.10408099740743637 -0.9493039846420288 -0.25697800517082214 -0.9664000272750854 -0.0057830000296235085
          0.15187999606132507 -0.2458849996328354 -0.9573259949684143 -0.24206599593162537 -0.8204500079154968 -0.5179449915885925
          -0.4137299954891205 -0.7764869928359985 0.47528401017189026 0.14409999549388885 0.8167129755020142 0.5587620139122009
          -0.2158149927854538 0.36427998542785645 0.9059380292892456 -0.32043299078941345 0.7001280188560486 0.638077974319458
          -0.5181670188903809 -0.49199798703193665 0.6995999813079834 -0.60384601354599 -0.04735700041055679 0.7956929802894592
          0.3735460042953491 0.9174349904060364 0.13702300190925598 0.41215699911117554 0.5425819754600525 -0.7319369912147522
          0.37194401025772095 0.6746230125427246 -0.6376060247421265 0.15256600081920624 0.07326500117778778 -0.9855740070343018
          0.010327000170946121 -0.5211390256881714 -0.853410005569458 -0.21164600551128387 -0.9325230121612549 -0.292587012052536
          -0.46143901348114014 -0.7954429984092712 0.39286699891090393 0.31924399733543396 0.9475820064544678 0.013119000010192394
          0.12502700090408325 0.8363040089607239 0.5338199734687805 -0.31821000576019287 0.7186020016670227 0.6183480024337769
          -0.6795780062675476 0.06194400042295456 0.7309830188751221 0.2246520072221756 0.9567729830741882 0.18470899760723114
          0.09410499781370163 0.9664170145988464 0.2391279935836792 -0.36226099729537964 -0.4814159870147705 0.7981259822845459
          -0.45418500900268555 -0.4313260018825531 0.7795349955558777 0.3545069992542267 0.7935469746589661 -0.4945780038833618
          0.38983801007270813 0.03541899845004082 -0.9202020168304443 0.27184998989105225 -0.2901360094547272 -0.9175609946250916
          0.062366001307964325 -0.8520349860191345 -0.519756019115448 -0.14652399718761444 -0.9857079982757568 -0.08313199877738953
          -0.39534300565719604 -0.7817509770393372 0.4822539985179901 -0.25562700629234314 0.18300500512123108 0.9492959976196289
          0.7237870097160339 0.6684039831161499 -0.17137399315834045 0.09581100195646286 0.8103920221328735 0.5780019760131836
          0.3734560012817383 0.13377299904823303 0.9179520010948181 0.3900800049304962 -0.4055190086364746 0.8266760110855103
          -0.16669200360774994 -0.5931990146636963 0.7876099944114685 0.5146239995956421 0.34585800766944885 -0.7845659852027893
          0.5701079964637756 0.09505899995565414 -0.8160520195960999 0.37154799699783325 -0.2576949894428253 -0.8919339776039124
          -0.2932179868221283 -0.9008060097694397 -0.32027000188827515 -0.036313001066446304 -0.9354419708251953 -0.3516109883785248
          -0.38724198937416077 -0.8892509937286377 -0.2434680014848709 -0.10510899871587753 -0.9444059729576111 0.3115270137786865
          0.9345390200614929 -0.08640599995851517 0.34521201252937317 0.8713669776916504 0.07716099917888641 -0.48452600836753845
          0.40186700224876404 -0.6775649785995483 0.6159610152244568 0.8266980051994324 -0.5395159721374512 0.15966300666332245
          0.6236889958381653 -0.17843100428581238 -0.7610350251197815 0.5176640152931213 -0.7189710140228271 -0.4637939929962158
          0.4181880056858063 -0.8944180011749268 0.15854400396347046 0.8542389869689941 -0.3765160143375397 -0.35848599672317505
          <InformationKey name="L2_NORM_RANGE" location="vtkDataArray" length="2">
            <Value index="0">
              0.99999935939
            </Value>
            <Value index="1">
              1.000000652
            </Value>
          </InformationKey>
        </DataArray>
      </PointData>
      <CellData>
      </CellData>
      <Points>
        <DataArray type="Float32" Name="Points" NumberOfComponents="3" format="ascii" RangeMin="0.0802215288507222" RangeMax="0.1466028233403175">
          0.07586999982595444 0.012508000247180462 0.03015200048685074 0.07737100124359131 0.009441999718546867 0.031046999618411064
          0.07299599796533585 0.012880000285804272 0.031838998198509216 0.07891300320625305 0.011215999722480774 0.029927000403404236
          0.08153200149536133 0.012767000123858452 0.02490600012242794 0.07276500016450882 0.014964999631047249 0.032600998878479004
          0.07531700283288956 0.009820999577641487 0.03365100175142288 0.07212799787521362 0.011843999847769737 0.03305700048804283
          0.08367499709129333 0.008597999811172485 0.03245500102639198 0.0809440016746521 0.008407000452280045 0.033344998955726624
          0.0718189999461174 0.014306999742984772 0.03476300090551376 0.08421999961137772 0.012350999750196934 0.024282999336719513
          0.08316799998283386 0.01451599970459938 0.024013999849557877 0.0778840035200119 0.020515000447630882 0.03132300078868866
          0.07349299639463425 0.01682399958372116 0.032993998378515244 0.07193300127983093 0.01296900026500225 0.03511299937963486
          0.07334200292825699 0.01321600005030632 0.03702300041913986 0.07676000148057938 0.011222000233829021 0.03757600113749504
          0.08868400007486343 0.010599999688565731 0.02498999983072281 0.09110599756240845 0.00901199970394373 0.03213699907064438
          0.09189999848604202 0.010985000059008598 0.035395000129938126 0.08772099763154984 0.011889999732375145 0.035714998841285706
          0.07332900166511536 0.01457700040191412 0.037342000752687454 0.07651399821043015 0.018874000757932663 0.03385100141167641
          0.09281899780035019 0.01227600034326315 0.025237999856472015 0.08359599858522415 0.02371400035917759 0.029683999717235565
          0.08021099865436554 0.018689999356865883 0.03563399985432625 0.07629500329494476 0.014314999803900719 0.03833099827170372
          0.08055000007152557 0.014123000204563141 0.03750399872660637 0.09526199847459793 0.011521000415086746 0.026686999946832657
          0.09879499673843384 0.008396999910473824 0.03260499984025955 0.10397999733686447 0.00853700004518032 0.031077999621629715
          0.11414899677038193 0.006031000055372715 0.0364300012588501 0.08748999983072281 0.02060599997639656 0.03374600037932396
          0.07779599726200104 0.015549000352621078 0.036945998668670654 0.09240599721670151 0.02283800020813942 0.029225999489426613
          0.09779399633407593 0.01523599959909916 0.026562999933958054 0.08889500051736832 0.02319899946451187 0.03136000037193298
          0.09938299655914307 0.013133999891579151 0.02698799967765808 0.11825600266456604 0.0035119999665766954 0.03512199968099594
          0.1128539964556694 0.008400999940931797 0.031158000230789185 0.12152399867773056 0.002985999919474125 0.03485099971294403
          0.12275099754333496 0.0027620000764727592 0.03819100186228752 0.11084900051355362 0.01564900018274784 0.03441900014877319
          0.12259399890899658 0.009252999909222126 0.039083998650312424 0.12760299444198608 0.008558999747037888 0.040849000215530396
          0.1256909966468811 0.0037350000347942114 0.04007299989461899 0.12545500695705414 0.0052999998442828655 0.040897998958826065
          0.09801200032234192 0.02000799961388111 0.030553000047802925 0.09953200072050095 0.018231000751256943 0.02827499993145466
          0.11074099689722061 0.015383999794721603 0.032517001032829285 0.1250160038471222 0.007691999897360802 0.03328299894928932
          0.12836399674415588 0.000534999999217689 0.03411699831485748 0.12959299981594086 -0.0005639999872073531 0.03569899871945381
          0.1285489946603775 -0.0009430000209249556 0.03939000144600868 0.11746200174093246 0.013577999547123909 0.03493500128388405
          0.12310100346803665 0.01107800006866455 0.037696000188589096 0.12853200733661652 0.008256999775767326 0.04320099949836731
          0.12721200287342072 0.005601000040769577 0.04320700094103813 0.12855499982833862 0.009456999599933624 0.03803899884223938
          0.13411100208759308 0.008163999766111374 0.042451001703739166 0.1315390020608902 0.0015569999814033508 0.04318400099873543
          0.12926700711250305 0.0037690000608563423 0.04419900104403496 0.12856599688529968 0.00936300028115511 0.035916998982429504
          0.13279299437999725 0.004021999891847372 0.03421600162982941 0.13086800277233124 0.0028540000785142183 0.03434799984097481
          0.13233399391174316 -0.0011749999830499291 0.03668399900197983 0.1325799971818924 -0.0018759999657049775 0.040862999856472015
          0.13349300622940063 -0.0017740000039339066 0.04194699972867966 0.13419599831104279 0.005491999909281731 0.0458419993519783
          0.1401599943637848 0.005524999927729368 0.04085899889469147 0.13548000156879425 0.006994000170379877 0.04538299888372421
          0.13760100305080414 0.0051819998770952225 0.04628700017929077 0.13811799883842468 0.0012120000319555402 0.04522699862718582
          0.135684996843338 -0.0007360000163316727 0.04394900053739548 0.13304300606250763 0.005431999918073416 0.03484499827027321
          0.1351419985294342 0.003957000095397234 0.036545999348163605 0.13505999743938446 0.0009840000420808792 0.0357699990272522
          0.13435600697994232 -0.0015640000347048044 0.04024000093340874 0.13553500175476074 -0.0022239999379962683 0.03935199975967407
          0.1342560052871704 -0.0021689999848604202 0.04103799909353256 0.13499799370765686 -0.0026279999874532223 0.04183100163936615
          0.1402450054883957 0.002445999998599291 0.0426350012421608 0.14058099687099457 0.0037640000227838755 0.03948599845170975
          0.13812899589538574 -0.0004349999944679439 0.043811000883579254 0.13909900188446045 -0.0009619999909773469 0.04149400070309639
          0.13908100128173828 0.0009490000084042549 0.037960998713970184 0.13861200213432312 -0.0008200000156648457 0.03853899985551834
          0.13787199556827545 -0.00165200000628829 0.042399000376462936 0.1395989954471588 0.0003490000090096146 0.038830000907182693
          <InformationKey name="L2_NORM_RANGE" location="vtkDataArray" length="2">
            <Value index="0">
              0.080221528851
            </Value>
            <Value index="1">
              0.14660282334
            </Value>
          </InformationKey>
        </DataArray>
      </Points>
      <Verts>
        <DataArray type="Int64" Name="connectivity" format="ascii" RangeMin="1e+299" RangeMax="-1e+299">
        </DataArray>
        <DataArray type="Int64" Name="offsets" format="ascii" RangeMin="1e+299" RangeMax="-1e+299">
        </DataArray>
      </Verts>
      <Lines>
        <DataArray type="Int64" Name="connectivity" format="ascii" RangeMin="1e+299" RangeMax="-1e+299">
        </DataArray>
        <DataArray type="Int64" Name="offsets" format="ascii" RangeMin="1e+299" RangeMax="-1e+299">
        </DataArray>
      </Lines>
      <Strips>
        <DataArray type="Int64" Name="connectivity" format="ascii" RangeMin="1e+299" RangeMax="-1e+299">
        </DataArray>
        <DataArray type="Int64" Name="offsets" format="ascii" RangeMin="1e+299" RangeMax="-1e+299">
        </DataArray>
      </Strips>
      <Polys>
        <DataArray type="Int32" Name="connectivity" format="ascii" RangeMin="0" RangeMax="89">
          0 1 2 3 1 0
          3 0 4 4 0 5
          5 0 2 6 7 1
          8 1 3 6 1 9
          1 8 9 2 1 7
          2 10 5 2 7 10
          8 3 4 11 8 4
          12 11 4 4 5 13
          12 4 13 14 5 10
          5 14 13 15 7 6
          16 15 6 17 16 6
          6 9 17 7 15 10
          11 18 8 8 18 19
          19 9 8 9 19 20
          9 20 21 17 9 21
          22 23 10 15 22 10
          10 23 14 11 24 18
          11 12 24 25 12 13
          24 12 25 25 13 26
          14 23 13 26 13 23
          22 15 16 16 27 22
          16 17 27 21 28 17
          28 27 17 24 29 18
          18 29 19 30 20 19
          19 29 31 19 31 30
          20 30 32 20 32 33
          20 33 21 33 26 21
          26 28 21 27 23 22
          26 23 34 27 34 23
          35 36 24 24 36 29
          24 25 35 35 25 37
          25 26 37 26 34 28
          37 26 33 27 28 34
          29 38 31 36 38 29
          30 31 39 39 32 30
          40 31 38 31 41 39
          40 41 31 42 32 39
          43 32 44 33 32 43
          32 45 44 46 32 42
          45 32 47 32 46 47
          37 33 48 43 48 33
          35 37 48 35 48 49
          36 35 49 38 36 49
          40 38 50 50 38 49
          41 42 39 50 51 40
          40 51 41 52 53 41
          54 41 53 52 41 51
          54 42 41 42 54 46
          50 43 55 48 43 50
          43 44 56 55 43 56
          44 45 56 57 45 58
          59 45 60 57 60 45
          58 45 47 56 45 59
          58 47 46 46 54 61
          61 62 46 58 46 62
          48 50 49 50 55 63
          51 50 63 51 63 64
          52 51 65 65 51 64
          65 66 52 52 66 53
          67 53 66 53 67 54
          68 54 67 68 61 54
          59 55 56 63 55 59
          60 57 69 69 57 58
          69 58 62 59 60 63
          70 63 60 69 71 60
          60 71 70 61 72 69
          73 61 74 72 61 73
          74 61 68 61 69 62
          75 63 70 75 64 63
          76 65 64 64 75 76
          65 77 66 77 65 76
          78 66 79 78 67 66
          66 77 79 67 78 80
          68 67 80 68 80 81
          68 81 74 69 72 71
          75 70 76 82 83 70
          76 70 83 70 72 82
          71 72 70 72 73 82
          73 84 85 73 85 82
          84 73 74 84 74 81
          83 77 76 86 77 83
          79 77 87 86 87 77
          80 78 79 80 79 81
          79 87 88 79 88 81
          84 81 88 82 85 83
          83 85 89 83 89 86
          84 88 85 89 85 87
          87 85 88 89 87 86
        </DataArray>
        <DataArray type="Int32" Name="offsets" format="ascii" RangeMin="3" RangeMax="528">
          3 6 9 12 15 18
          21 24 27 30 33 36
          39 42 45 48 51 54
          57 60 63 66 69 72
          75 78 81 84 87 90
          93 96 99 102 105 108
          111 114 117 120 123 126
          129 132 135 138 141 144
          147 150 153 156 159 162
          165 168 171 174 177 180
          183 186 189 192 195 198
          201 204 207 210 213 216
          219 222 225 228 231 234
          237 240 243 246 249 252
          255 258 261 264 267 270
          273 276 279 282 285 288
          291 294 297 300 303 306
          309 312 315 318 321 324
          327 330 333 336 339 342
          345 348 351 354 357 360
          363 366 369 372 375 378
          381 384 387 390 393 396
          399 402 405 408 411 414
          417 420 423 426 429 432
          435 438 441 444 447 450
          453 456 459 462 465 468
          471 474 477 480 483 486
          489 492 495 498 501 504
          507 510 513 516 519 522
          525 528
        </DataArray>
      </Polys>
    </Piece>
  </PolyData>
</VTKFile>
