<?xml version="1.0"?>
<VTKFile type="PolyData" version="0.1" byte_order="LittleEndian" header_type="UInt32" compressor="vtkZLibDataCompressor">
  <PolyData>
    <Piece NumberOfPoints="69" NumberOfVerts="0" NumberOfLines="0" NumberOfStrips="0" NumberOfPolys="134">
      <PointData Normals="Normals">
        <DataArray type="Float32" Name="Normals" NumberOfComponents="3" format="ascii" RangeMin="0.9999993718234599" RangeMax="1.0000005523196551">
          0.10310599952936172 0.15310199558734894 0.9828169941902161 -0.5700129866600037 -0.3397749960422516 0.7480900287628174
          -0.250793993473053 -0.45885398983955383 0.8523820042610168 0.25998300313949585 0.6429839730262756 0.7204030156135559
          0.1437149941921234 0.1809149980545044 0.9729419946670532 0.44356998801231384 0.6278949975967407 0.6395260095596313
          -0.0802680030465126 -0.004395000170916319 0.9967640042304993 0.4913429915904999 0.4939880073070526 0.7173269987106323
          -0.6951249837875366 -0.6104220151901245 0.37971800565719604 -0.6581190228462219 -0.7300379872322083 -0.1841839998960495
          -0.7348620295524597 -0.630046010017395 -0.2510389983654022 -0.6430699825286865 -0.5168079733848572 0.5651289820671082
          -0.4317629933357239 -0.8895559906959534 -0.1492370069026947 0.043852001428604126 -0.2354699969291687 0.9708920121192932
          0.3706960082054138 0.6683899760246277 0.6448559761047363 0.5258920192718506 0.839788019657135 0.13488799333572388
          0.4589810073375702 0.03929699957370758 0.8875769972801208 0.32510998845100403 -0.2805210053920746 0.90311199426651
          -0.17418499290943146 -0.5602579712867737 0.8097959756851196 0.4642679989337921 0.86490398645401 -0.1907770037651062
          0.6831640005111694 0.6077250242233276 0.40491700172424316 -0.12891599535942078 -0.9866639971733093 0.09937000274658203
          -0.2291789948940277 -0.22116899490356445 -0.9479249715805054 -0.3472859859466553 -0.5918400287628174 -0.7274050116539001
          -0.426486998796463 -0.27167999744415283 -0.8627279996871948 0.030532000586390495 -0.7611969709396362 -0.6478019952774048
          -0.29608801007270813 0.2369769960641861 -0.9252970218658447 -0.28234198689460754 -0.13267700374126434 -0.9500939846038818
          -0.24095000326633453 -0.9257370233535767 -0.2914699912071228 -0.19890600442886353 -0.7092530131340027 0.6763110160827637
          0.23228700459003448 0.6387379765510559 -0.7335240244865417 0.009793000295758247 -0.4299429953098297 0.9028030037879944
          0.2664310038089752 0.30250799655914307 0.9151520133018494 0.30734699964523315 0.8942109942436218 -0.32545900344848633
          0.403533011674881 0.8228129744529724 0.400175005197525 0.2883619964122772 0.7474799752235413 -0.5984320044517517
          0.7737979888916016 -0.5261200070381165 0.3527509868144989 0.9455320239067078 -0.16377100348472595 0.2813340127468109
          0.3781619966030121 -0.8008120059967041 0.46442899107933044 0.1901009976863861 0.40908101201057434 -0.8924760222434998
          0.49700498580932617 0.7816950082778931 -0.3767479956150055 0.9225760102272034 0.10181300342082977 -0.37213999032974243
          0.4984990060329437 -0.8204529881477356 -0.2799209952354431 0.5207669734954834 -0.22084900736808777 -0.8246380090713501
          0.2970559895038605 0.40054500102996826 -0.8667880296707153 0.3495129942893982 -0.5947790145874023 -0.7239329814910889
          0.036423999816179276 0.38861700892448425 -0.920678973197937 -0.21124699711799622 -0.8738129734992981 -0.4379790127277374
          0.03740600124001503 -0.8064730167388916 0.5900869965553284 -0.15887300670146942 -0.16624799370765686 -0.9732009768486023
          0.33116599917411804 0.9177079796791077 -0.21941199898719788 0.16917100548744202 0.014089999720454216 0.9854859709739685
          0.2148679941892624 0.6486520171165466 0.7301250100135803 0.793300986289978 -0.5614399909973145 -0.235494002699852
          -0.16028399765491486 -0.49752599000930786 0.852512001991272 -0.747859001159668 -0.6622080206871033 -0.04676799848675728
          -0.8490189909934998 -0.41493499279022217 -0.3271009922027588 -0.18131199479103088 0.48855501413345337 -0.8534870147705078
          -0.8465330004692078 0.3415679931640625 -0.40830400586128235 -0.9033380150794983 -0.050181999802589417 -0.4259830117225647
          0.021637000143527985 0.8439339995384216 0.5360100269317627 -0.147257998585701 0.9760950207710266 0.15985499322414398
          -0.6585080027580261 0.7421410083770752 -0.12487500160932541 -0.04244399815797806 -0.15818199515342712 0.9864969849586487
          -0.13388900458812714 -0.1120619997382164 0.9846400022506714 -0.08072800189256668 0.4108000099658966 0.908145010471344
          -0.5939499735832214 -0.04912000149488449 0.8030009865760803 -0.791018009185791 0.32460200786590576 0.5185779929161072
          -0.4302709996700287 0.7360039949417114 0.5226510167121887
          <InformationKey name="L2_NORM_RANGE" location="vtkDataArray" length="2">
            <Value index="0">
              0.99999937182
            </Value>
            <Value index="1">
              1.0000005523
            </Value>
          </InformationKey>
        </DataArray>
      </PointData>
      <CellData>
      </CellData>
      <Points>
        <DataArray type="Float32" Name="Points" NumberOfComponents="3" format="ascii" RangeMin="0.10281808660223782" RangeMax="0.16509122645985053">
          0.1584250032901764 0.005231000017374754 -0.011870999820530415 0.1546510010957718 -0.000003000000106112566 -0.013154000043869019
          0.15259000658988953 0.001829999964684248 -0.013182000257074833 0.15675200521945953 0.00688599981367588 -0.012559999711811543
          0.1549540013074875 0.007189000025391579 -0.01216300018131733 0.15952399373054504 0.006221000105142593 -0.01252800039947033
          0.15937800705432892 -0.0030060000717639923 -0.011467999778687954 0.16141599416732788 0.004333999939262867 -0.013321000151336193
          0.15702399611473083 -0.00406099995598197 -0.012914000079035759 0.1572979986667633 -0.006345000118017197 -0.014643999747931957
          0.1521189957857132 0.0012629999546334147 -0.014426000416278839 0.1576559990644455 -0.004887999966740608 -0.012273999862372875
          0.1449050009250641 0.005127999931573868 -0.013384999707341194 0.14491599798202515 0.008628999814391136 -0.010622000321745872
          0.14811000227928162 0.01107999961823225 -0.011819999665021896 0.15970300137996674 0.0064409999176859856 -0.013763999566435814
          0.1620199978351593 -0.0010349999647587538 -0.011783000081777573 0.16105200350284576 -0.003938000183552504 -0.01170899998396635
          0.15852099657058716 -0.005109000019729137 -0.011973000131547451 0.16033700108528137 0.0055680000223219395 -0.015519999898970127
          0.16336099803447723 0.004178999923169613 -0.013999000191688538 0.15935200452804565 -0.006523999851197004 -0.014551999978721142
          0.15856599807739258 -0.0028019999153912067 -0.018021000549197197 0.15837900340557098 -0.005280000157654285 -0.016448000445961952
          0.15707899630069733 -0.0002770000137388706 -0.017242999747395515 0.15966099500656128 -0.005650999955832958 -0.01635099947452545
          0.15498599410057068 0.005841999780386686 -0.016735000535845757 0.15539099276065826 0.0014280000468716025 -0.01768999919295311
          0.1263660043478012 0.012171999551355839 -0.012512000277638435 0.1360889971256256 0.009101999923586845 -0.01075700018554926
          0.1350719928741455 0.017261000350117683 -0.01260400004684925 0.1303980052471161 0.013466999866068363 -0.008837999776005745
          0.13165700435638428 0.017627999186515808 -0.008848000317811966 0.15347599983215332 0.009390000253915787 -0.014495999552309513
          0.1220339983701706 0.02314000017940998 -0.009045000188052654 0.15708400309085846 0.007267000153660774 -0.016210999339818954
          0.16151399910449982 -0.005247000139206648 -0.012759000062942505 0.16447199881076813 -0.00007599999662488699 -0.014152999967336655
          0.16078400611877441 -0.005878999829292297 -0.01257800031453371 0.159510999917984 0.00419300002977252 -0.017162000760436058
          0.16243399679660797 0.004900000058114529 -0.015521000139415264 0.16424599289894104 0.0005869999877177179 -0.016674000769853592
          0.1607690006494522 -0.005626999773085117 -0.0158270001411438 0.16319799423217773 -0.0015269999857991934 -0.0176829993724823
          0.16187499463558197 0.004058000165969133 -0.017280999571084976 0.16140399873256683 -0.004412999842315912 -0.017062999308109283
          0.1573449969291687 0.005692000035196543 -0.01771700009703636 0.10968700051307678 0.015189999714493752 -0.008376999758183956
          0.11077500134706497 0.015124999918043613 -0.005584000144153833 0.10357700288295746 0.02352299913764 -0.014940000139176846
          0.11154700070619583 0.028095999732613564 -0.009681000374257565 0.11077400296926498 0.021825000643730164 -0.004738000221550465
          0.10502199828624725 0.028421999886631966 -0.005456000100821257 0.16228599846363068 -0.004157999996095896 -0.01632699929177761
          0.10373599827289581 0.014756999909877777 -0.004654000047594309 0.1014069989323616 0.016124000772833824 -0.005309999920427799
          0.10046800225973129 0.0216669999063015 -0.012267000041902065 0.10123299807310104 0.026575999334454536 -0.014182999730110168
          0.10056900233030319 0.025414999574422836 -0.014037000015377998 0.09991700202226639 0.024421000853180885 -0.013411000370979309
          0.10460299998521805 0.028939999639987946 -0.006178999785333872 0.10374400019645691 0.029364999383687973 -0.007195999845862389
          0.10243400186300278 0.02855999954044819 -0.01252800039947033 0.10405399650335312 0.019305000081658363 -0.004567999858409166
          0.10392799973487854 0.020514000207185745 -0.004182000178843737 0.10425499826669693 0.026559000834822655 -0.004251000005751848
          0.10126200318336487 0.01755700074136257 -0.00533400010317564 0.10286399722099304 0.027060000225901604 -0.004825000185519457
          0.10350699722766876 0.028836999088525772 -0.006066999863833189
          <InformationKey name="L2_NORM_RANGE" location="vtkDataArray" length="2">
            <Value index="0">
              0.1028180866
            </Value>
            <Value index="1">
              0.16509122646
            </Value>
          </InformationKey>
        </DataArray>
      </Points>
      <Verts>
        <DataArray type="Int64" Name="connectivity" format="ascii" RangeMin="1e+299" RangeMax="-1e+299">
        </DataArray>
        <DataArray type="Int64" Name="offsets" format="ascii" RangeMin="1e+299" RangeMax="-1e+299">
        </DataArray>
      </Verts>
      <Lines>
        <DataArray type="Int64" Name="connectivity" format="ascii" RangeMin="1e+299" RangeMax="-1e+299">
        </DataArray>
        <DataArray type="Int64" Name="offsets" format="ascii" RangeMin="1e+299" RangeMax="-1e+299">
        </DataArray>
      </Lines>
      <Strips>
        <DataArray type="Int64" Name="connectivity" format="ascii" RangeMin="1e+299" RangeMax="-1e+299">
        </DataArray>
        <DataArray type="Int64" Name="offsets" format="ascii" RangeMin="1e+299" RangeMax="-1e+299">
        </DataArray>
      </Strips>
      <Polys>
        <DataArray type="Int32" Name="connectivity" format="ascii" RangeMin="0" RangeMax="68">
          2 1 0 4 0 3
          0 5 3 7 0 6
          4 2 0 1 6 0
          5 0 7 9 8 1
          2 10 1 9 1 10
          11 1 8 6 1 11
          12 10 2 2 13 12
          13 2 4 3 14 4
          3 15 14 5 15 3
          13 4 14 7 15 5
          6 16 7 6 17 16
          6 11 18 6 18 17
          7 19 15 19 7 20
          7 16 20 21 8 9
          21 11 8 23 9 22
          22 9 24 9 10 24
          25 9 23 21 9 25
          12 26 10 27 24 10
          26 27 10 21 18 11
          12 29 28 12 13 29
          30 26 12 12 28 30
          31 29 13 14 32 13
          32 31 13 15 33 14
          14 30 34 14 33 30
          34 32 14 15 35 33
          19 35 15 37 16 36
          37 20 16 36 16 17
          17 18 38 38 36 17
          38 18 21 39 35 19
          40 39 19 40 19 20
          20 41 40 41 20 37
          21 42 38 21 25 42
          22 44 43 22 24 39
          45 22 43 39 44 22
          25 23 22 25 22 45
          27 39 24 25 45 42
          35 26 33 30 33 26
          27 26 46 26 35 46
          27 46 39 28 48 47
          28 29 31 28 31 48
          49 30 28 49 28 47
          30 49 50 34 30 50
          51 48 31 31 32 51
          34 52 32 32 52 51
          52 34 50 39 46 35
          38 42 36 53 36 42
          37 36 53 53 41 37
          39 40 44 44 40 41
          41 43 44 53 43 41
          53 42 45 45 43 53
          54 47 48 54 55 47
          47 56 49 55 56 47
          48 51 54 57 50 49
          59 58 49 57 49 58
          59 49 56 52 50 60
          61 60 50 61 50 62
          50 57 62 64 63 51
          51 63 54 52 65 51
          51 65 64 65 52 60
          63 66 54 55 54 66
          55 66 56 66 67 56
          59 56 67 58 62 57
          59 67 58 58 67 62
          68 65 60 61 68 60
          62 68 61 67 68 62
          66 63 64 67 64 65
          67 66 64 68 67 65
        </DataArray>
        <DataArray type="Int32" Name="offsets" format="ascii" RangeMin="3" RangeMax="402">
          3 6 9 12 15 18
          21 24 27 30 33 36
          39 42 45 48 51 54
          57 60 63 66 69 72
          75 78 81 84 87 90
          93 96 99 102 105 108
          111 114 117 120 123 126
          129 132 135 138 141 144
          147 150 153 156 159 162
          165 168 171 174 177 180
          183 186 189 192 195 198
          201 204 207 210 213 216
          219 222 225 228 231 234
          237 240 243 246 249 252
          255 258 261 264 267 270
          273 276 279 282 285 288
          291 294 297 300 303 306
          309 312 315 318 321 324
          327 330 333 336 339 342
          345 348 351 354 357 360
          363 366 369 372 375 378
          381 384 387 390 393 396
          399 402
        </DataArray>
      </Polys>
    </Piece>
  </PolyData>
</VTKFile>
