<?xml version="1.0"?>
<VTKFile type="PolyData" version="0.1" byte_order="LittleEndian" header_type="UInt32" compressor="vtkZLibDataCompressor">
  <PolyData>
    <Piece NumberOfPoints="382" NumberOfVerts="0" NumberOfLines="0" NumberOfStrips="0" NumberOfPolys="760">
      <PointData Normals="Normals">
        <DataArray type="Float32" Name="Normals" NumberOfComponents="3" format="ascii" RangeMin="0.9999992444085658" RangeMax="1.000000665007943">
          -0.04191099852323532 0.38305601477622986 -0.9227740168571472 -0.21681000292301178 -0.017331000417470932 -0.9760599732398987
          -0.023287000134587288 0.382860004901886 -0.9235129952430725 0.05277799814939499 0.7143189907073975 -0.6978269815444946
          -0.06588300317525864 0.33710798621177673 -0.939158022403717 -0.27329400181770325 -0.3104020059108734 -0.9104729890823364
          -0.2299489974975586 -0.2688080072402954 -0.935342013835907 -0.15963199734687805 -0.011710000224411488 -0.98710697889328
          -0.06320100277662277 -0.23250199854373932 -0.9705399870872498 -0.02305000089108944 0.11573699861764908 -0.993012011051178
          0.20244100689888 0.46282699704170227 -0.8630229830741882 0.17958299815654755 0.863152027130127 -0.47192999720573425
          0.10276400297880173 0.9177899956703186 -0.3835369944572449 0.1308870017528534 0.9497069716453552 -0.2844719886779785
          -0.06247600167989731 0.6543030142784119 -0.7536470293998718 0.10559599846601486 0.8024150133132935 -0.5873500108718872
          0.1315779983997345 0.016488999128341675 -0.9911689758300781 0.10516700148582458 0.5842369794845581 -0.8047400116920471
          -0.4896929860115051 -0.6743180155754089 -0.5527169704437256 -0.16168999671936035 -0.3991580009460449 -0.9025130271911621
          -0.36589300632476807 -0.5003659725189209 -0.7847009897232056 -0.24419499933719635 -0.4608759880065918 -0.853206992149353
          -0.11242499947547913 -0.4104500114917755 -0.9049260020256042 -0.16396400332450867 -0.39754000306129456 -0.9028170108795166
          -0.009998999536037445 -0.3237850069999695 -0.9460780024528503 0.030917000025510788 -0.3189319968223572 -0.9472730159759521
          -0.14011600613594055 -0.24699099361896515 -0.9588339924812317 0.003916999790817499 0.21428899466991425 -0.9767619967460632
          -0.007949000224471092 -0.09139300137758255 -0.9957829713821411 0.3155510127544403 0.26553699374198914 -0.9109979867935181
          0.2890320122241974 0.8642659783363342 -0.4117090106010437 0.46773600578308105 0.7876830101013184 -0.40097200870513916
          0.4264799952507019 0.6761900186538696 -0.6007339954376221 0.3637300133705139 0.47397899627685547 -0.8019009828567505
          0.30311599373817444 0.8888530135154724 0.34360000491142273 0.20663799345493317 0.9263629913330078 0.3148840069770813
          0.3089140057563782 0.9494439959526062 -0.05592599883675575 0.3223479986190796 0.8798519968986511 -0.3492169976234436
          0.02161099947988987 0.9886040091514587 0.1489820033311844 0.01796099916100502 0.9974520206451416 0.06904999911785126
          0.09749499708414078 0.9733080267906189 0.20776599645614624 0.14400699734687805 0.9404820203781128 0.3078239858150482
          0.5287389755249023 0.6689839959144592 -0.522392988204956 0.35745400190353394 -0.027482999488711357 -0.9335259795188904
          0.5575730204582214 0.25456899404525757 -0.7901309728622437 0.12111199647188187 -0.24907399713993073 -0.9608820080757141
          -0.742917001247406 -0.6222860217094421 -0.2466460019350052 -0.6527130007743835 -0.7480059862136841 -0.12021899968385696
          -0.3283100128173828 -0.7986500263214111 -0.5043519735336304 -0.5200610160827637 -0.6681039929389954 -0.5321409702301025
          -0.5976269841194153 -0.6542009711265564 -0.4635330140590668 -0.4614050090312958 -0.8817089796066284 -0.0984639972448349
          -0.3484970033168793 -0.8331090211868286 -0.4295099973678589 -0.20069999992847443 -0.6546679735183716 -0.7287859916687012
          -0.36834201216697693 -0.7141119837760925 -0.5952889919281006 -0.04802199825644493 -0.2500019967556 -0.967054009437561
          0.2754940092563629 -0.4926309883594513 -0.8254799842834473 0.26687100529670715 -0.21246899664402008 -0.9400200247764587
          0.20842699706554413 -0.270673006772995 -0.9398369789123535 -0.3182240128517151 -0.7937260270118713 -0.5183939933776855
          -0.290147989988327 -0.7699249982833862 -0.568356990814209 0.16630500555038452 -0.2547129988670349 -0.9526090025901794
          -0.13389000296592712 -0.7137830257415771 -0.6874489784240723 0.30081498622894287 0.2897529900074005 -0.9085999727249146
          0.43242400884628296 0.8853470087051392 0.17079000174999237 0.45813798904418945 0.8865000009536743 -0.06501899659633636
          0.559660017490387 0.8259180188179016 0.06812000274658203 0.13722799718379974 0.7432590126991272 -0.654778003692627
          0.21629400551319122 0.8866609930992126 -0.40871599316596985 -0.00028700000257231295 0.527675986289978 -0.8494459986686707
          0.3729430139064789 0.7309319972991943 0.5715339779853821 0.1710290014743805 0.3991659879684448 0.9007859826087952
          0.2727839946746826 0.4288870096206665 0.8611879944801331 0.430976003408432 0.4683380126953125 0.7713099718093872
          0.08821099996566772 0.5824130177497864 0.8080919981002808 0.11238399893045425 0.24442599713802338 0.9631329774856567
          0.5533260107040405 0.8060889840126038 -0.2098820060491562 0.12948399782180786 0.9410279989242554 0.3125689923763275
          0.319256991147995 0.9086040258407593 0.26928600668907166 0.5984669923782349 0.7953400015830994 0.09628599882125854
          0.06833700090646744 0.8119879961013794 0.5796599984169006 -0.06822100281715393 0.874305009841919 0.48055899143218994
          0.8595240116119385 0.3256880044937134 -0.3938870131969452 0.8344659805297852 0.5350130200386047 -0.1320129930973053
          0.5470629930496216 0.15628500282764435 -0.8223720192909241 0.6485159993171692 -0.0941310003399849 -0.7553579807281494
          0.763795018196106 0.17098599672317505 -0.6223989725112915 -0.7129009962081909 -0.7007650136947632 0.026474999263882637
          -0.650846004486084 -0.7569550275802612 0.05847200006246567 -0.5831140279769897 -0.7898939847946167 -0.18985700607299805
          -0.3267900049686432 -0.9124789834022522 -0.24615199863910675 -0.40949100255966187 -0.8931810259819031 0.18586300313472748
          -0.3147450089454651 -0.9490439891815186 0.015845999121665955 -0.10172899812459946 -0.9080610275268555 -0.4062950015068054
          0.30349600315093994 -0.7147160172462463 -0.6301360130310059 0.4504140019416809 -0.3147299885749817 -0.8355069756507874
          0.6823210120201111 -0.6744289994239807 -0.2821060121059418 0.5908179879188538 -0.38689398765563965 -0.707988977432251
          0.6855019927024841 -0.5667939782142639 -0.45698100328445435 -0.2224390059709549 -0.9684839844703674 -0.11207400262355804
          -0.1541289985179901 -0.9035300016403198 -0.39984801411628723 -0.007542999926954508 -0.3071900010108948 -0.9516180157661438
          0.04879600182175636 -0.695231020450592 -0.7171279788017273 0.10203400254249573 -0.8702679872512817 -0.48189499974250793
          -0.17448699474334717 0.1997939944267273 -0.9641770124435425 0.5149739980697632 0.7439939975738525 0.4257639944553375
          0.48602598905563354 0.7139490246772766 0.5040389895439148 0.05085200071334839 0.9838849902153015 -0.1714159995317459
          0.28246399760246277 0.9466590285301208 0.15508399903774261 0.44120800495147705 0.7215290069580078 0.5336019992828369
          0.5468019843101501 0.7347800135612488 0.4013800024986267 -0.2304369956254959 0.7636319994926453 -0.6031299829483032
          -0.07181800156831741 0.9028800129890442 -0.42385199666023254 -0.4297010004520416 0.5240700244903564 -0.7353280186653137
          0.24643899500370026 0.1116430014371872 0.962706983089447 0.16403299570083618 -0.3364439904689789 0.9273070096969604
          0.06859000027179718 -0.26964500546455383 0.9605140089988708 0.33114901185035706 0.09802400320768356 0.9384729862213135
          0.5741130113601685 0.5564510226249695 0.600629985332489 0.38378599286079407 -0.22458599507808685 0.8956949710845947
          0.5199919939041138 0.12469200044870377 0.8450210094451904 -0.15402700006961823 0.04778200015425682 0.9869109988212585
          0.03419800102710724 0.6307079792022705 0.7752670049667358 -0.04897800087928772 -0.17837700247764587 0.9827420115470886
          -0.0011859999503940344 -0.31400299072265625 0.9494209885597229 0.040031999349594116 0.8401380181312561 0.540893018245697
          0.28311899304389954 0.820052981376648 0.49734899401664734 0.5786619782447815 0.6974319815635681 0.422775000333786
          0.30573201179504395 0.6761900186538696 0.670295000076294 0.8421279788017273 0.4913240075111389 0.2223079949617386
          -0.007129000034183264 0.7391999959945679 0.6734489798545837 -0.10343199968338013 0.7848079800605774 0.6110470294952393
          0.9755290150642395 0.1896589994430542 -0.11122900247573853 0.9625499844551086 -0.11842299997806549 -0.24387100338935852
          0.9497449994087219 0.3110570013523102 0.03503299877047539 0.8554670214653015 -0.37518998980522156 -0.3569439947605133
          -0.6711660027503967 -0.6618880033493042 0.3338249921798706 -0.6357570290565491 -0.5348759889602661 0.5565260052680969
          -0.6077730059623718 -0.6567109823226929 0.446478009223938 -0.545557975769043 -0.7826719880104065 0.29965099692344666
          -0.4468330144882202 -0.8926519751548767 0.05927100032567978 -0.12696599960327148 -0.9916110038757324 0.024212999269366264
          -0.1407500058412552 -0.9800729751586914 0.1401659995317459 -0.26134100556373596 -0.8709189891815186 0.4161739945411682
          -0.3380810022354126 -0.7446230053901672 0.5755329728126526 -0.46889299154281616 -0.6657159924507141 0.5804839730262756
          -0.21659600734710693 -0.9389619827270508 0.2672770023345947 -0.0021150000393390656 -0.9947810173034668 -0.10200800001621246
          0.35174301266670227 -0.9013590216636658 -0.2526420056819916 0.5324199795722961 -0.8352019786834717 0.13772200047969818
          0.7135630249977112 -0.6995689868927002 0.03781900182366371 0.8455139994621277 -0.5187619924545288 -0.12645499408245087
          -0.044015999883413315 -0.9946150183677673 0.0938280001282692 -0.14395999908447266 -0.9545919895172119 0.2608250081539154
          -0.06508299708366394 -0.9715200066566467 -0.2278439998626709 -0.163224995136261 -0.05024399980902672 -0.9853090047836304
          -0.1808989942073822 -0.4141240119934082 -0.8920630216598511 0.05092800036072731 -0.6642820239067078 -0.7457450032234192
          -0.2350039929151535 -0.5928419828414917 -0.7702680230140686 0.23982000350952148 -0.7511289715766907 -0.6150540113449097
          0.29013699293136597 -0.9283350110054016 -0.23240900039672852 -0.38721999526023865 0.24155500531196594 -0.8897820115089417
          0.427156001329422 0.7110909819602966 0.5584689974784851 0.314642995595932 0.8330259919166565 0.45504599809646606
          0.3969230055809021 0.6936079859733582 0.6011319756507874 -0.2957780063152313 0.925025999546051 -0.23841600120067596
          -0.4053089916706085 0.9136940240859985 0.02981399931013584 -0.3570939898490906 0.7465389966964722 0.5613930225372314
          0.014456000179052353 0.8195719718933105 0.5727940201759338 -0.42005300521850586 0.7288029789924622 -0.5407410264015198
          -0.31971898674964905 0.8530399799346924 -0.41243499517440796 -0.6740649938583374 0.3502730131149292 -0.6503430008888245
          -0.686182975769043 0.5430459976196289 -0.48399800062179565 0.29051899909973145 -0.36967501044273376 0.8825749754905701
          0.06816600263118744 -0.6269170045852661 0.7760980129241943 -0.0074789999052882195 -0.7034119963645935 0.7107430100440979
          0.15122400224208832 -0.6910169720649719 0.7068430185317993 -0.10570300370454788 -0.7002130150794983 0.7060660123825073
          0.46999698877334595 0.450654000043869 0.7589560151100159 0.3734759986400604 -0.5618339776992798 0.7381449937820435
          0.22940699756145477 -0.7364879846572876 0.6363630294799805 0.2935430109500885 -0.03360399976372719 0.9553549885749817
          0.2994900047779083 -0.2847200036048889 0.9106259942054749 0.45489999651908875 0.26256799697875977 0.8509550094604492
          -0.2082509994506836 -0.5724999904632568 0.7930160164833069 -0.34854599833488464 -0.4674589931964874 0.8124030232429504
          -0.21340900659561157 0.34512200951576233 0.9139729738235474 -0.024893999099731445 0.6765379905700684 0.7359859943389893
          0.236176997423172 0.6909210085868835 0.6832640171051025 0.3167000114917755 0.586135983467102 0.7457519769668579
          0.713824987411499 0.5451920032501221 0.4395669996738434 0.45991000533103943 0.5570759773254395 0.6914839744567871
          0.2201710045337677 0.5199660062789917 0.8253239989280701 0.9272590279579163 0.3278149962425232 0.18090899288654327
          0.8457109928131104 0.3295780122280121 0.41970300674438477 0.0009120000177063048 0.6757839918136597 0.7370989918708801
          0.9952470064163208 -0.004757000133395195 0.09726499766111374 0.9788720011711121 -0.2012310028076172 0.03626300022006035
          0.8293060064315796 -0.5401449799537659 0.1431639939546585 0.9453880190849304 -0.01790199987590313 0.3254550099372864
          -0.32892000675201416 -0.7348660230636597 0.5931140184402466 -0.456371009349823 -0.7328119874000549 0.5046899914741516
          -0.58051997423172 -0.6678360104560852 0.4658240079879761 -0.05497799813747406 -0.9156690239906311 0.39815500378608704
          0.11000700294971466 -0.9878209829330444 0.11003699898719788 -0.5659120082855225 -0.5464720129966736 0.6173419952392578
          -0.46456900238990784 -0.47453799843788147 0.747655987739563 0.23743599653244019 -0.7787439823150635 0.5806739926338196
          0.5064550042152405 -0.7349870204925537 0.45088499784469604 0.30006900429725647 -0.9509199857711792 0.07555799931287766
          -0.011807999573647976 -0.857820987701416 0.5138120055198669 0.12162300199270248 -0.90420001745224 0.4094269871711731
          -0.5565320253372192 -0.27859699726104736 -0.7827230095863342 -0.5114219784736633 0.17176499962806702 -0.8419889807701111
          -0.3129029870033264 -0.652180016040802 -0.6904730200767517 -0.21869799494743347 -0.5393850207328796 -0.8131629824638367
          -0.5600410103797913 -0.6418740153312683 -0.5237860083580017 -0.6223999857902527 -0.3987790048122406 -0.6734939813613892
          0.20541700720787048 -0.8750569820404053 -0.4382680058479309 -0.24007700383663177 -0.6820859909057617 -0.6907399892807007
          0.40491899847984314 -0.7831659913063049 -0.471902996301651 0.40032899379730225 -0.8987410068511963 -0.17889200150966644
          -0.11454000324010849 0.8716490268707275 0.47655901312828064 0.14959700405597687 0.7982159852981567 0.5835000276565552
          0.07507999986410141 0.8032730221748352 0.5908600091934204 0.1917009949684143 0.5831030011177063 0.7894570231437683
          -0.689795970916748 0.7066259980201721 -0.15767300128936768 -0.8612899780273438 0.5072849988937378 0.029012000188231468
          -0.9106699824333191 0.3560450077056885 0.20955100655555725 -0.7429260015487671 0.3630110025405884 0.562391996383667
          -0.500436007976532 0.6510319709777832 0.5707200169563293 -0.6865609884262085 0.7246419787406921 0.059404999017715454
          -0.5208740234375 0.7402009963989258 -0.4251970052719116 -0.9046670198440552 0.23672200739383698 -0.3543170094490051
          -0.9328510165214539 0.2365269958972931 -0.2717429995536804 -0.8077110052108765 0.5722330212593079 -0.1419599950313568
          -0.9226170182228088 0.38566499948501587 -0.006388000212609768 0.22716599702835083 0.22075499594211578 0.9485059976577759
          0.30794399976730347 -0.8801490068435669 0.36125999689102173 0.4386120140552521 -0.6045519709587097 0.6649330258369446
          0.45183101296424866 -0.8144909739494324 0.3639410138130188 0.17262299358844757 -0.10803200304508209 0.9790459871292114
          0.3766059875488281 -0.2670139968395233 0.8870580196380615 -0.43292999267578125 -0.4418500065803528 0.7857099771499634
          -0.3509329855442047 -0.3855240046977997 0.8533560037612915 -0.11319199949502945 -0.053748998790979385 0.9921180009841919
          -0.023910999298095703 0.7271689772605896 0.686040997505188 0.21811500191688538 0.6663820147514343 0.7129939794540405
          0.5669450163841248 0.394555002450943 0.723118007183075 0.22730299830436707 0.6280249953269958 0.7442569732666016
          0.02881699986755848 0.7963050007820129 0.6042090058326721 0.8963819742202759 -0.283515989780426 0.3407610058784485
          0.8632230162620544 -0.4113349914550781 0.2926590144634247 0.5380629897117615 -0.7296270132064819 0.42205700278282166
          0.8193190097808838 -0.3802820146083832 0.42906999588012695 0.7720209956169128 -0.03249200060963631 0.6347659826278687
          -0.008232999593019485 -0.6189690232276917 0.7853720188140869 -0.0569010004401207 -0.6851980090141296 0.726131021976471
          -0.19514200091362 -0.7551559805870056 0.6258270144462585 -0.1506730020046234 -0.9453660249710083 0.28910401463508606
          -0.2237440049648285 -0.9133999943733215 0.34005600214004517 -0.5125849843025208 -0.67364901304245 0.5324029922485352
          -0.35282599925994873 -0.46081599593162537 0.8143479824066162 -0.3620940148830414 -0.4634619951248169 0.8087589740753174
          0.21244600415229797 -0.7784129977226257 0.5907109975814819 0.3883579969406128 -0.9169170260429382 0.09187600016593933
          -0.6304420232772827 -0.6850200295448303 -0.3650889992713928 -0.9737989902496338 -0.21621400117874146 -0.07047799974679947
          -0.5948349833488464 -0.6893609762191772 -0.4134629964828491 -0.8459360003471375 -0.36898699402809143 -0.38502100110054016
          -0.7918329834938049 -0.5596749782562256 -0.24446499347686768 -0.6192629933357239 -0.4293909966945648 -0.6573709845542908
          -0.8730990290641785 -0.1741359978914261 -0.4553830027580261 -0.7961090207099915 -0.3293589949607849 -0.5076749920845032
          -0.17486999928951263 -0.9448879957199097 -0.27678000926971436 0.16644200682640076 -0.9746519923210144 -0.14949899911880493
          -0.5883600115776062 -0.689096987247467 -0.42305800318717957 -0.41926801204681396 0.7403249740600586 0.5254849791526794
          -0.48026201128959656 0.8010820150375366 0.35723400115966797 -0.10923600196838379 0.7602069973945618 0.6404320001602173
          -0.0246140006929636 0.6671540141105652 0.7445129752159119 0.09872999787330627 0.40777599811553955 0.9077280163764954
          -0.9424489736557007 0.331714004278183 0.041909001767635345 -0.9414849877357483 0.2911669909954071 0.16978499293327332
          -0.7677260041236877 0.5556420087814331 0.3191530108451843 -0.6782870292663574 0.6808639764785767 0.2763180136680603
          -0.9221839904785156 0.34171798825263977 -0.18112200498580933 -0.9085540175437927 0.41057801246643066 0.07717099785804749
          -0.9651309847831726 0.25133898854255676 -0.0731469988822937 -0.9977849721908569 0.022109000012278557 0.06273499876260757
          -0.9938049912452698 0.0896110013127327 0.06573399901390076 -0.9319220185279846 0.3117290139198303 0.1853249967098236
          0.16413000226020813 0.14614999294281006 0.9755520224571228 0.3558869957923889 -0.651790976524353 0.6697099804878235
          0.3950369954109192 -0.8481600284576416 0.3529439866542816 0.29156801104545593 0.05187800154089928 0.9551420211791992
          0.12291300296783447 -0.48741400241851807 0.8644769787788391 0.35048601031303406 -0.24157600104808807 0.9048759937286377
          -0.012342000380158424 0.05751299858093262 0.9982690215110779 -0.08980000019073486 -0.5080239772796631 0.8566489815711975
          0.14299200475215912 -0.654895007610321 0.7420690059661865 0.11726699769496918 0.19350799918174744 0.9740650057792664
          0.059039998799562454 0.7652450203895569 0.6410260200500488 0.3191930055618286 0.6420440077781677 0.6970620155334473
          0.42878401279449463 0.5305230021476746 0.7312250137329102 0.39401501417160034 0.525443971157074 0.7540959715843201
          0.48744601011276245 0.4449709951877594 0.7512630224227905 0.43650001287460327 0.38779300451278687 0.8118399977684021
          0.7368059754371643 -0.37161099910736084 0.5648210048675537 0.803068995475769 -0.30006900429725647 0.5148190259933472
          0.6142150163650513 -0.6832910180091858 0.39478400349617004 0.338034987449646 -0.8741509914398193 0.34870201349258423
          0.7374439835548401 -0.47037601470947266 0.48468899726867676 0.6837069988250732 -0.25293099880218506 0.6845219731330872
          -0.05252400040626526 -0.8870069980621338 0.45875999331474304 0.028320999816060066 -0.9647030234336853 0.2618139982223511
          -0.015216999687254429 -0.9498890042304993 0.3122180104255676 -0.12467200309038162 -0.7625659704208374 0.6347830295562744
          -0.3127819895744324 -0.7513939738273621 0.5810120105743408 -0.06825699657201767 -0.3992530107498169 0.9142959713935852
          0.24929699301719666 -0.9242950081825256 0.2890160083770752 -0.17102600634098053 -0.9755859971046448 -0.13777899742126465
          0.10584200173616409 -0.9937610030174255 0.035172998905181885 -0.7855319976806641 -0.5960130095481873 -0.16645599901676178
          -0.9371579885482788 -0.34468400478363037 -0.054113999009132385 -0.9752740263938904 -0.018736999481916428 -0.2202029973268509
          -0.9466260075569153 -0.2644369900226593 -0.18431399762630463 -0.9267609715461731 -0.16856199502944946 -0.33570900559425354
          -0.6731600165367126 -0.6763690114021301 -0.2989639937877655 -0.189969003200531 0.5911939740180969 0.7838379740715027
          -0.747979998588562 0.6105989813804626 0.26018399000167847 -0.9733690023422241 0.21821600198745728 0.07024499773979187
          -0.945930004119873 0.06554900109767914 -0.3176780045032501 -0.9867939949035645 0.004310000222176313 0.16192400455474854
          -0.9557939767837524 0.045788999646902084 -0.29044800996780396 -0.9204069972038269 0.3264780044555664 0.21508899331092834
          -0.9192829728126526 0.3727850019931793 0.1262979954481125 -0.9904969930648804 0.12863099575042725 -0.04868900030851364
          -0.9999079704284668 -0.009216000325977802 -0.00989800039678812 -0.2885870039463043 0.4528459906578064 0.8435919880867004
          -0.18003399670124054 -0.8770319819450378 0.44542399048805237 -0.25679799914360046 -0.7643510103225708 0.5914580225944519
          0.14294900000095367 -0.9516469836235046 0.2719070017337799 -0.24425700306892395 0.29188600182533264 0.9247379899024963
          -0.07837499678134918 -0.1432410031557083 0.9865800142288208 -0.6035879850387573 -0.3804819881916046 0.7006539702415466
          -0.6670560240745544 0.32864099740982056 0.6686050295829773 -0.624921977519989 0.131399005651474 0.7695500254631042
          0.24278099834918976 -0.6193490028381348 0.7466350197792053 0.1758439987897873 -0.46375301480293274 0.8683379888534546
          0.4012730121612549 -0.1000719964504242 0.9104750156402588 0.6008539795875549 -0.13543100655078888 0.7878029942512512
          0.48923999071121216 -0.5142459869384766 0.704410970211029 0.3119710087776184 0.5031480193138123 0.8059260249137878
          0.5286009907722473 0.2718980014324188 0.8041470050811768 0.586965024471283 0.14575399458408356 0.7963839769363403
          0.4198639988899231 -0.4292140007019043 0.7996810078620911 0.6323450207710266 -0.37483200430870056 0.6779680252075195
          0.6894890069961548 -0.2973420023918152 0.6604490280151367 0.46236100792884827 -0.7525539994239807 0.4689190089702606
          0.49825799465179443 -0.08381199836730957 0.8629680275917053 0.22078299522399902 -0.9366220235824585 0.27202001214027405
          0.19616900384426117 -0.6575070023536682 0.7274630069732666 -0.39039599895477295 -0.8972510099411011 -0.20623299479484558
          -0.5885170102119446 -0.7656009793281555 -0.2598150074481964 -0.18522800505161285 -0.9804180264472961 -0.06686600297689438
          -0.9699329733848572 0.1269409954547882 -0.20764200389385223 -0.8712430000305176 -0.3955860137939453 -0.29059600830078125
          -0.787771999835968 -0.5299320220947266 -0.31398600339889526 -0.8390910029411316 0.4604080021381378 0.28974398970603943
          -0.9212039709091187 -0.3621569871902466 0.1422179937362671 -0.896697998046875 -0.4399380087852478 -0.04886399954557419
          -0.8912749886512756 -0.40154901146888733 -0.21068300306797028 -0.6934329867362976 -0.6099629998207092 0.38352999091148376
          -0.6555179953575134 0.4105739891529083 0.6338179707527161 -0.3239719867706299 -0.9439659714698792 0.06301400065422058
          -0.6648430228233337 -0.6966059803962708 0.26967400312423706 -0.6473309993743896 -0.7607579827308655 0.047008998692035675
          0.42528700828552246 -0.5345550179481506 0.7303299903869629 0.7450569868087769 0.006393000017851591 0.6669700145721436
          -0.5126169919967651 -0.8220009803771973 -0.24806900322437286 -0.6821789741516113 -0.7039170265197754 -0.19781799614429474
          <InformationKey name="L2_NORM_RANGE" location="vtkDataArray" length="2">
            <Value index="0">
              0.99999924441
            </Value>
            <Value index="1">
              1.000000665
            </Value>
          </InformationKey>
        </DataArray>
      </PointData>
      <CellData>
      </CellData>
      <Points>
        <DataArray type="Float32" Name="Points" NumberOfComponents="3" format="ascii" RangeMin="0.11791548879253824" RangeMax="0.18336415626385483">
          0.16580000519752502 0.007329000160098076 -0.03482000157237053 0.1654050052165985 0.005884999874979258 -0.034901998937129974
          0.15909700095653534 0.009976999834179878 -0.03320299834012985 0.16913500428199768 0.010520000010728836 -0.031876999884843826
          0.1714629977941513 0.005288000218570232 -0.03574899956583977 0.16239400207996368 0.004573000129312277 -0.03366599977016449
          0.1674569994211197 0.003837999887764454 -0.03517099842429161 0.16070200502872467 0.007313000038266182 -0.033629000186920166
          0.16942399740219116 0.004459000192582607 -0.035562001168727875 0.1564909964799881 0.008888999931514263 -0.03339700028300285
          0.1348010003566742 0.01816900074481964 -0.031096000224351883 0.1561879962682724 0.014302999712526798 -0.029363000765442848
          0.1734360009431839 0.012369999662041664 -0.02877099998295307 0.15894100069999695 0.014023999683558941 -0.029116999357938766
          0.1727689951658249 0.008741999976336956 -0.033521998673677444 0.1758520007133484 0.010067000053822994 -0.03214100003242493
          0.17434699833393097 0.005111999809741974 -0.03584799915552139 0.17540299892425537 0.008090999908745289 -0.034428998827934265
          0.16077600419521332 0.00092299998505041 -0.02979400008916855 0.15804700553417206 0.006308000069111586 -0.033555999398231506
          0.16732299327850342 -0.0040790000930428505 -0.030565999448299408 0.16722500324249268 0.0026599999982863665 -0.03454500064253807
          0.16806000471115112 0.0033420000690966845 -0.035092998296022415 0.16948799788951874 -0.00036899998667649925 -0.03321100026369095
          0.17391100525856018 0.003926000092178583 -0.03546300157904625 0.17413899302482605 0.0044999998062849045 -0.03572100028395653
          0.14586399495601654 0.010718000121414661 -0.03275100141763687 0.14160899817943573 0.013693000189960003 -0.03224800154566765
          0.13411900401115417 0.014907999895513058 -0.03212499991059303 0.13071100413799286 0.01905299909412861 -0.031978998333215714
          0.1407719999551773 0.01869400031864643 -0.028680000454187393 0.13577499985694885 0.02067900076508522 -0.02865700051188469
          0.12793299555778503 0.02540699951350689 -0.029726000502705574 0.12785300612449646 0.022251000627875328 -0.031713999807834625
          0.1415420025587082 0.01936499960720539 -0.02468699961900711 0.1543940007686615 0.015668999403715134 -0.024647999554872513
          0.17609499394893646 0.01320900022983551 -0.024720000103116035 0.17828699946403503 0.011630999855697155 -0.02804899960756302
          0.16993099451065063 0.013535999692976475 -0.024171000346541405 0.17321699857711792 0.013818000443279743 -0.023781999945640564
          0.16391199827194214 0.014045000076293945 -0.024557000026106834 0.1592469960451126 0.014639999717473984 -0.024498000741004944
          0.17866599559783936 0.009500999934971333 -0.0319180004298687 0.17661599814891815 0.003737000050023198 -0.03510899841785431
          0.1780710071325302 0.007015000097453594 -0.03406799957156181 0.17523500323295593 0.00392800010740757 -0.035408999770879745
          0.16185800731182098 -0.0009350000182166696 -0.028867999091744423 0.16049499809741974 0.000818000000435859 -0.02875800058245659
          0.1571110039949417 0.0030519999563694 -0.03095499984920025 0.16565799713134766 -0.003727999981492758 -0.029810000211000443
          0.16365399956703186 -0.00267699989490211 -0.02901099994778633 0.1569100022315979 0.002991999965161085 -0.029934000223875046
          0.15248000621795654 0.005185000132769346 -0.03109399974346161 0.1705700010061264 -0.004292000085115433 -0.031773000955581665
          0.16711099445819855 -0.004606000147759914 -0.030068999156355858 0.17519600689411163 -0.000539999979082495 -0.03438900038599968
          0.17490899562835693 -0.0014890000456944108 -0.03413999825716019 0.17602400481700897 0.0032649999484419823 -0.035193998366594315
          0.17619499564170837 0.0006230000290088356 -0.03458699956536293 0.1429159939289093 0.008706999942660332 -0.030897000804543495
          0.13810299336910248 0.010799000039696693 -0.031001999974250793 0.1306540071964264 0.015588999725878239 -0.032496001571416855
          0.13374699652194977 0.012102000415325165 -0.030355999246239662 0.12745100259780884 0.01998700015246868 -0.03341500088572502
          0.13620400428771973 0.02124200016260147 -0.02500399947166443 0.1261560022830963 0.02790199965238571 -0.026498999446630478