<?xml version="1.0"?>
<VTKFile type="PolyData" version="0.1" byte_order="LittleEndian" header_type="UInt32" compressor="vtkZLibDataCompressor">
  <PolyData>
    <Piece NumberOfPoints="76" NumberOfVerts="0" NumberOfLines="0" NumberOfStrips="0" NumberOfPolys="148">
      <PointData Normals="Normals">
        <DataArray type="Float32" Name="Normals" NumberOfComponents="3" format="ascii" RangeMin="0.9999993744003773" RangeMax="1.0000005129451197">
          -0.7375059723854065 -0.6713510155677795 0.07330100238323212 -0.4868749976158142 -0.8352220058441162 -0.25565001368522644
          -0.4679130017757416 -0.8830249905586243 0.03638400137424469 -0.5877270102500916 -0.7539399862289429 0.29351699352264404
          -0.2530460059642792 -0.5958240032196045 -0.7622079849243164 -0.26002100110054016 -0.5326160192489624 0.8054249882698059
          -0.39594098925590515 -0.36358898878097534 -0.8432279825210571 -0.32572299242019653 -0.6549109816551208 -0.68190598487854
          -0.27412599325180054 -0.1653990000486374 0.9473639726638794 0.12429200112819672 -0.9804689884185791 0.15242299437522888
          -0.37937799096107483 -0.914713978767395 0.13917599618434906 0.031075000762939453 -0.07938999682664871 -0.9963589906692505
          0.18746399879455566 0.17656800150871277 -0.9662719964981079 0.13624000549316406 -0.2985430061817169 -0.9446219801902771
          0.3905239999294281 -0.5210599899291992 0.7589390277862549 0.34172001481056213 -0.11908700317144394 -0.9322260022163391
          0.5551789999008179 -0.7285779714584351 -0.401187002658844 -0.33921000361442566 0.1464889943599701 0.9292349815368652
          -0.3832620084285736 -0.268449991941452 0.8837670087814331 -0.11289700120687485 0.42755600810050964 0.8969110250473022
          0.6462529897689819 -0.11411000043153763 0.7545430064201355 0.5157809853553772 0.2800540030002594 0.8096539974212646
          0.8341280221939087 -0.49477601051330566 0.24377700686454773 -0.1368110030889511 -0.8875899910926819 -0.43984800577163696
          -0.24981699883937836 -0.2879190146923065 0.9244970083236694 -0.2739250063896179 -0.6497960090637207 0.7090340256690979
          0.4161739945411682 0.5515559911727905 -0.7229009866714478 0.4169670045375824 0.6315420269966125 -0.6536769866943359
          0.3460249900817871 0.6173310279846191 -0.7065190076828003 0.2081959992647171 0.9760720133781433 0.06275100260972977
          0.1358029991388321 -0.5368289947509766 -0.8326900005340576 0.3055259883403778 0.1712229996919632 -0.9366620182991028
          0.8333050012588501 0.11978500336408615 -0.5396789908409119 0.9095370173454285 -0.2788130044937134 -0.308230996131897
          -0.178056001663208 0.6483160257339478 0.740257978439331 -0.17325900495052338 0.3095889985561371 0.9349520206451416
          0.4491710066795349 0.6366009712219238 0.6268849968910217 0.21047799289226532 0.9157860279083252 0.3421039879322052
          0.9852709770202637 -0.006051999982446432 0.17089399695396423 0.8910560011863708 0.4067640006542206 0.2014019936323166
          -0.008477999828755856 -0.9572219848632812 -0.28922900557518005 -0.13753899931907654 -0.8079119920730591 0.573028028011322
          0.08560600131750107 0.553754985332489 0.8282679915428162 0.5515350103378296 0.8295850157737732 0.08716099709272385
          0.7315329909324646 0.5878689885139465 -0.34535399079322815 0.3452740013599396 0.8717610239982605 -0.34758898615837097
          0.1344980001449585 -0.45887699723243713 -0.8782610297203064 0.2938550114631653 0.6211490035057068 -0.7265139818191528
          0.0964369997382164 -0.004240000154823065 -0.9953299760818481 -0.10429900139570236 -0.981827974319458 0.1585409939289093
          -0.2909739911556244 -0.9192969799041748 -0.2650049924850464 -0.2262520045042038 -0.49884098768234253 0.8366410136222839
          -0.07961899787187576 -0.14194299280643463 0.9866679906845093 0.16203099489212036 0.7564560174942017 0.6336569786071777
          0.15601800382137299 0.987729012966156 -0.007094999775290489 -0.05566199868917465 -0.1723490059375763 -0.9834619760513306
          0.012098000384867191 0.6308140158653259 -0.7758399844169617 -0.25028499960899353 0.4165489971637726 -0.8739820122718811
          -0.25471198558807373 0.08009999990463257 -0.9636939764022827 -0.033890001475811005 -0.3189220130443573 -0.9471750259399414
          -0.8355849981307983 -0.5491799712181091 0.014116999693214893 -0.9149169921875 -0.39820998907089233 -0.06600099802017212
          -0.038325000554323196 -0.13901099562644958 -0.9895489811897278 -0.1160769984126091 -0.6328719854354858 0.7655050158500671
          -0.3129410147666931 -0.2569980025291443 -0.9143409729003906 -0.0022819999139755964 0.08594399690628052 0.9962970018386841
          -0.2422569990158081 0.7576119899749756 0.606082022190094 0.07397700101137161 0.9839749932289124 -0.16223900020122528
          -0.6273829936981201 0.7023810148239136 -0.336230993270874 -0.2481600046157837 0.46902400255203247 -0.847603976726532
          -0.08413100242614746 0.41286900639533997 -0.9068970084190369 -0.6308029890060425 0.10144799947738647 -0.7692829966545105
          -0.6637539863586426 0.12498299777507782 -0.737434983253479 -0.6423130035400391 0.16246600449085236 -0.7490249872207642
          -0.7154840230941772 0.24721799790859222 -0.6534259915351868 -0.775534987449646 -0.07184100151062012 0.6272040009498596
          <InformationKey name="L2_NORM_RANGE" location="vtkDataArray" length="2">
            <Value index="0">
              0.9999993744
            </Value>
            <Value index="1">
              1.0000005129
            </Value>
          </InformationKey>
        </DataArray>
      </PointData>
      <CellData>
      </CellData>
      <Points>
        <DataArray type="Float32" Name="Points" NumberOfComponents="3" format="ascii" RangeMin="0.09300418020116141" RangeMax="0.15802326896565366">
          0.1447950005531311 0.00002700000004551839 0.028074000030755997 0.14833000302314758 -0.0022279999684542418 0.0267730001360178
          0.14802299439907074 -0.003700000001117587 0.029025999829173088 0.14148500561714172 0.0028929999098181725 0.027130000293254852
          0.14162899553775787 0.0030590000096708536 0.026440000161528587 0.14868399500846863 -0.0025530001148581505 0.03067599982023239
          0.14683100581169128 0.0001610000035725534 0.02559399977326393 0.148389995098114 -0.0023300000466406345 0.025689000263810158
          0.15126100182533264 0.00030399998649954796 0.03220999985933304 0.15096700191497803 -0.004004000220447779 0.028807999566197395
          0.13592299818992615 0.005566000007092953 0.02499699965119362 0.14872699975967407 0.002807999961078167 0.025232000276446342
          0.14190299808979034 0.010015999898314476 0.023989999666810036 0.13323800265789032 0.01027000043541193 0.021825000643730164
          0.15330299735069275 -0.0005719999899156392 0.03181900084018707 0.15252399444580078 0.00019700000120792538 0.025079000741243362
          0.15263399481773376 -0.0030700000934302807 0.02691200003027916 0.1425199955701828 0.007625000085681677 0.028905000537633896
          0.13792699575424194 0.006428999826312065 0.02696800045669079 0.14705699682235718 0.00837399996817112 0.03060699999332428
          0.15449300408363342 0.0016880000475794077 0.03171800076961517 0.15400700271129608 0.004133000038564205 0.031672000885009766
          0.15464000403881073 -0.000003000000106112566 0.03009600006043911 0.13011200726032257 0.007728000171482563 0.023264000192284584
          0.13543599843978882 0.007234000135213137 0.026498999446630478 0.1297609955072403 0.007712999824434519 0.025483999401330948
          0.1517760008573532 0.007701000198721886 0.026415999978780746 0.14955399930477142 0.008791999891400337 0.024808000773191452
          0.13544000685214996 0.012783999554812908 0.022902999073266983 0.1421699970960617 0.011374000459909439 0.025743000209331512
          0.11320099979639053 0.013667000457644463 0.018327999860048294 0.11058899760246277 0.017727000638842583 0.016540000215172768
          0.15459699928760529 0.0049959998577833176 0.026649000123143196 0.15435299277305603 -0.0007029999978840351 0.027442999184131622
          0.1432500034570694 0.009612999856472015 0.02826800011098385 0.13887900114059448 0.009903999976813793 0.027403999119997025
          0.15317000448703766 0.006351999938488007 0.030858999118208885 0.14783300459384918 0.009576000273227692 0.02927899919450283
          0.1550000011920929 0.0019020000472664833 0.03070399910211563 0.154681995511055 0.005537000019103289 0.029210999608039856
          0.11190199851989746 0.011392000131309032 0.020711999386548996 0.11599300056695938 0.011033999733626842 0.023883000016212463
          0.12512600421905518 0.01706000044941902 0.023731999099254608 0.15289700031280518 0.007822999730706215 0.028526000678539276
          0.15415699779987335 0.0065830000676214695 0.0269399993121624 0.1036050021648407 0.02368899993598461 0.018265999853610992
          0.10278499871492386 0.01279900036752224 0.015216999687254429 0.10316800326108932 0.02194499969482422 0.015936000272631645
          0.1015940010547638 0.018674999475479126 0.014037000015377998 0.10996299982070923 0.011194000020623207 0.022863000631332397
          0.09522300213575363 0.01269300002604723 0.015111000277101994 0.10470899939537048 0.012938999570906162 0.024323999881744385
          0.1007310003042221 0.018743999302387238 0.023872999474406242 0.1013529971241951 0.023817000910639763 0.021390000358223915
          0.09692200273275375 0.02586499974131584 0.01822800002992153 0.10080999881029129 0.016993999481201172 0.014491000212728977
          0.09480900317430496 0.025805000215768814 0.016752000898122787 0.09708300232887268 0.022197000682353973 0.014539999887347221
          0.0947289988398552 0.018702000379562378 0.013900999911129475 0.09845899790525436 0.017317000776529312 0.014547999948263168
          0.08822900056838989 0.018758999183773994 0.0226610004901886 0.09315600246191025 0.013968000188469887 0.01598699949681759
          0.09869299829006195 0.016630999743938446 0.014682999812066555 0.09260900318622589 0.018637999892234802 0.023878000676631927
          0.0933300033211708 0.01788800023496151 0.014529000036418438 0.09292799979448318 0.02031799964606762 0.02468300051987171
          0.0887250006198883 0.02280700020492077 0.023514000698924065 0.09467799961566925 0.026041999459266663 0.017246000468730927
          0.0927169993519783 0.026000000536441803 0.016932999715209007 0.09509599953889847 0.019509999081492424 0.01494900044053793
          0.09301699697971344 0.024768000468611717 0.015584000386297703 0.0961809977889061 0.022897999733686447 0.015043999999761581
          0.09582299739122391 0.022523000836372375 0.015675000846385956 0.09630999714136124 0.021707000210881233 0.014917000196874142
          0.09349799901247025 0.018843999132514 0.014232000336050987 0.08765300363302231 0.02082199975848198 0.023905999958515167
          <InformationKey name="L2_NORM_RANGE" location="vtkDataArray" length="2">
            <Value index="0">
              0.093004180201
            </Value>
            <Value index="1">
              0.15802326897
            </Value>
          </InformationKey>
        </DataArray>
      </Points>
      <Verts>
        <DataArray type="Int64" Name="connectivity" format="ascii" RangeMin="1e+299" RangeMax="-1e+299">
        </DataArray>
        <DataArray type="Int64" Name="offsets" format="ascii" RangeMin="1e+299" RangeMax="-1e+299">
        </DataArray>
      </Verts>
      <Lines>
        <DataArray type="Int64" Name="connectivity" format="ascii" RangeMin="1e+299" RangeMax="-1e+299">
        </DataArray>
        <DataArray type="Int64" Name="offsets" format="ascii" RangeMin="1e+299" RangeMax="-1e+299">
        </DataArray>
      </Lines>
      <Strips>
        <DataArray type="Int64" Name="connectivity" format="ascii" RangeMin="1e+299" RangeMax="-1e+299">
        </DataArray>
        <DataArray type="Int64" Name="offsets" format="ascii" RangeMin="1e+299" RangeMax="-1e+299">
        </DataArray>
      </Strips>
      <Polys>
        <DataArray type="Int32" Name="connectivity" format="ascii" RangeMin="0" RangeMax="75">
          0 1 2 3 4 0
          5 0 2 6 7 0
          1 0 7 6 0 4
          8 0 5 8 3 0
          1 7 9 9 2 1
          9 5 2 4 3 10
          8 10 3 4 11 6
          12 4 13 10 13 4
          4 12 11 5 14 8
          14 5 9 6 11 7
          15 7 11 16 7 15
          9 7 16 8 17 18
          17 8 19 20 8 14
          21 19 8 8 18 10
          20 21 8 9 16 22
          14 9 22 23 13 10
          18 24 10 10 25 23
          24 25 10 26 15 11
          27 26 11 11 12 27
          28 29 12 29 27 12
          28 12 13 13 23 30
          13 30 31 13 31 28
          22 20 14 32 15 26
          33 15 32 15 33 16
          16 33 22 34 17 19
          17 35 18 35 17 34
          18 35 24 21 36 19
          37 19 36 34 19 37
          20 38 21 38 20 22
          21 38 39 21 39 36
          33 38 22 40 23 41
          41 23 25 40 30 23
          24 35 42 24 42 25
          42 41 25 27 37 26
          37 43 26 44 26 43
          32 26 44 27 29 37
          45 42 28 29 28 42
          28 31 45 35 29 42
          29 35 34 29 34 37
          30 40 46 31 30 46
          47 45 31 46 48 31
          48 47 31 32 44 39
          32 39 38 38 33 32
          43 36 39 37 36 43
          39 44 43 49 40 41
          50 40 49 46 40 50
          49 41 51 41 42 51
          51 42 52 42 53 52
          45 53 42 54 45 47
          54 53 45 46 55 48
          55 46 50 56 54 47
          56 47 57 47 48 57
          58 57 48 59 48 55
          48 59 58 50 49 51
          50 60 61 55 50 62
          50 52 63 63 60 50
          52 50 51 64 62 50
          50 61 64 65 52 53
          65 63 52 66 53 54
          65 53 66 67 54 56
          66 54 68 54 67 68
          59 55 62 68 67 56
          56 69 70 56 70 68
          56 57 71 56 71 72
          56 72 69 73 71 57
          69 57 58 57 69 73
          58 59 64 69 58 74
          58 64 74 62 64 59
          63 75 60 61 60 74
          60 68 74 75 68 60
          74 64 61 63 65 75
          75 65 66 66 68 75
          70 74 68 73 69 72
          69 74 70 73 72 71
        </DataArray>
        <DataArray type="Int32" Name="offsets" format="ascii" RangeMin="3" RangeMax="444">
          3 6 9 12 15 18
          21 24 27 30 33 36
          39 42 45 48 51 54
          57 60 63 66 69 72
          75 78 81 84 87 90
          93 96 99 102 105 108
          111 114 117 120 123 126
          129 132 135 138 141 144
          147 150 153 156 159 162
          165 168 171 174 177 180
          183 186 189 192 195 198
          201 204 207 210 213 216
          219 222 225 228 231 234
          237 240 243 246 249 252
          255 258 261 264 267 270
          273 276 279 282 285 288
          291 294 297 300 303 306
          309 312 315 318 321 324
          327 330 333 336 339 342
          345 348 351 354 357 360
          363 366 369 372 375 378
          381 384 387 390 393 396
          399 402 405 408 411 414
          417 420 423 426 429 432
          435 438 441 444
        </DataArray>
      </Polys>
    </Piece>
  </PolyData>
</VTKFile>
