<?xml version="1.0"?>
<VTKFile type="PolyData" version="0.1" byte_order="LittleEndian" header_type="UInt32" compressor="vtkZLibDataCompressor">
  <PolyData>
    <Piece NumberOfPoints="347" NumberOfVerts="0" NumberOfLines="0" NumberOfStrips="0" NumberOfPolys="694">
      <PointData Normals="Normals">
        <DataArray type="Float32" Name="Normals" NumberOfComponents="3" format="ascii" RangeMin="0.9999992701170238" RangeMax="1.0000006910677872">
          -0.1855580061674118 0.1428530067205429 0.9721940159797668 -0.18263199925422668 0.17551399767398834 0.9673879742622375
          -0.31473100185394287 0.03920400142669678 0.9483709931373596 -0.44380098581314087 -0.07503999769687653 0.8929780125617981
          0.2959980070590973 0.1322840005159378 0.9459840059280396 0.1608850061893463 -0.08935900032520294 0.9829199910163879
          0.26281699538230896 0.1134129986166954 0.9581570029258728 0.48593801259994507 0.5345240235328674 0.6914820075035095
          0.15474799275398254 0.8095470070838928 0.5662930011749268 0.09374800324440002 0.5360220074653625 0.8389829993247986
          0.626708984375 0.4813939929008484 0.6127769947052002 0.5431349873542786 0.2382510006427765 0.8051339983940125
          0.11240900307893753 -0.03666999936103821 0.9929850101470947 0.4877449870109558 -0.055257998406887054 0.8712360262870789
          -0.4924199879169464 -0.2666580080986023 0.8285019993782043 -0.08178400248289108 -0.37539899349212646 0.9232479929924011
          0.668537974357605 -0.13222600519657135 0.7318289875984192 0.8798109889030457 0.06744500249624252 0.4705139994621277
          0.5600529909133911 -0.4046249985694885 0.722923994064331 0.039080001413822174 0.39445099234580994 0.9180859923362732
          0.08473599702119827 0.01843399927020073 0.9962329864501953 0.014651999808847904 -0.11679799854755402 0.9930480122566223
          0.6686999797821045 0.7382940053939819 0.08810900151729584 0.16252799332141876 0.44694700837135315 0.8796719908714294
          0.8112189769744873 0.3350349962711334 0.4792430102825165 0.8864880204200745 0.4573670029640198 0.07038900256156921
          0.4998230040073395 0.8613089919090271 0.09123200178146362 0.41785600781440735 0.9071419835090637 -0.04990300163626671
          0.8553249835968018 0.45422598719596863 -0.2491929978132248 0.9199010133743286 0.32914701104164124 0.21317699551582336
          0.5397300124168396 -0.048542000353336334 0.8404369950294495 0.03470800071954727 -0.18325300514698029 0.9824529886245728
          0.08702299743890762 -0.004685999825596809 0.9961950182914734 -0.023618999868631363 0.4150010049343109 0.9095140099525452
          -0.3117679953575134 -0.2170030027627945 0.9250460267066956 0.19793899357318878 -0.6636430025100708 0.7213860154151917
          0.9325270056724548 -0.3192040026187897 0.16882500052452087 0.9844779968261719 0.1415729969739914 0.10373000055551529
          -0.5976449847221375 -0.05171399936079979 0.800091028213501 -0.6223880052566528 0.14799199998378754 0.768589973449707
          -0.4543209969997406 -0.11626800149679184 0.883217990398407 -0.5622869729995728 -0.13898199796676636 0.8151800036430359
          0.6931909918785095 0.6420869827270508 -0.32743099331855774 0.029895000159740448 0.2305459976196289 0.9726020097732544
          0.7702999711036682 0.22694000601768494 0.5959330201148987 0.9688469767570496 0.16128699481487274 -0.1879429966211319
          0.9602680206298828 0.25470900535583496 -0.11405500024557114 0.8815339803695679 0.3047420084476471 -0.3605960011482239
          0.948203980922699 0.11960799992084503 -0.29428398609161377 -0.6196799874305725 -0.5671399831771851 0.5425390005111694
          -0.3395189940929413 -0.3677699863910675 0.8657209873199463 -0.12668299674987793 -0.3578290045261383 0.9251539707183838
          -0.07723499834537506 -0.7237899899482727 0.6856840252876282 0.6013110280036926 -0.7638180255889893 0.23453399538993835
          0.07276400178670883 -0.8462250232696533 0.5278339982032776 0.9174659848213196 -0.26531100273132324 -0.29642200469970703
          0.776773989200592 -0.6170269846916199 -0.12609200179576874 -0.8374069929122925 -0.0982770025730133 0.5376719832420349
          -0.7555469870567322 0.0015409999759867787 0.6550920009613037 -0.7464960217475891 -0.2672779858112335 0.6093479990959167
          0.7222200036048889 0.14308999478816986 0.676701009273529 -0.018014000728726387 0.146589994430542 0.9890329837799072
          -0.11637099832296371 0.15463300049304962 0.9810940027236938 -0.8050199747085571 0.005348000209778547 0.593222975730896
          0.7540389895439148 0.24753199517726898 -0.6084020137786865 0.5093590021133423 0.10902400314807892 -0.8536199927330017
          0.9868890047073364 0.09293700009584427 0.13195599615573883 0.865539014339447 -0.04131900146603584 -0.49913400411605835
          0.5491970181465149 0.005125000141561031 -0.8356770277023315 0.8278769850730896 -0.15226399898529053 -0.5398480296134949
          0.9240970015525818 0.0784899964928627 -0.37401100993156433 0.8201680183410645 -0.04069099947810173 -0.5706729888916016
          0.8300099968910217 0.3847160041332245 -0.4038270115852356 0.8638229966163635 0.46067100763320923 -0.20394299924373627
          -0.2801640033721924 -0.9513159990310669 0.12847700715065002 -0.05435200035572052 -0.9322670102119446 0.3576650023460388
          -0.6377260088920593 -0.728771984577179 0.24939200282096863 -0.8834429979324341 -0.39530301094055176 0.2515229880809784
          0.4756940007209778 -0.8789520263671875 -0.03403899818658829 0.7321479916572571 -0.43794500827789307 -0.521694004535675
          0.49446699023246765 -0.8569939732551575 -0.14513400197029114 0.6103860139846802 -0.7089849710464478 -0.35322800278663635
          -0.8786290287971497 -0.1754399985074997 0.4441069960594177 -0.9125710129737854 -0.2858180105686188 0.2924399971961975
          -0.9832119941711426 -0.07320400327444077 0.16713599860668182 0.1248520016670227 0.06367900222539902 0.9901300072669983
          0.7880640029907227 0.08456599712371826 0.6097570061683655 -0.16675600409507751 0.09838899970054626 0.9810770153999329
          -0.34819498658180237 0.10473799705505371 0.9315530061721802 -0.12692299485206604 -0.023579999804496765 0.9916319847106934
          -0.576645016670227 -0.00648800004273653 0.8169689774513245 -0.9771100282669067 -0.09559600055217743 0.19004599750041962
          -0.9775050282478333 -0.11657200008630753 -0.1757729947566986 -0.9794989824295044 -0.10188999772071838 0.17378400266170502
          0.2729730010032654 0.018976999446749687 -0.9618350267410278 0.410286009311676 0.41537201404571533 -0.8118699789047241
          -0.013895999640226364 0.15168200433254242 -0.9883319735527039 0.9536280035972595 -0.08867699652910233 -0.28762900829315186
          0.9811919927597046 -0.08546700328588486 0.17308300733566284 0.6487810015678406 0.10178399831056595 0.7541369795799255
          0.7383229732513428 -0.18225400149822235 -0.6493560075759888 0.5594919919967651 -0.12498000264167786 -0.8193590044975281
          -0.08193399757146835 -0.06920599937438965 -0.9942319989204407 0.680059015750885 -0.1432500034570694 -0.7190269827842712
          0.4895879924297333 -0.3586600124835968 -0.7947750091552734 0.3839710056781769 -0.5832059979438782 -0.7158470153808594
          0.5533980131149292 -0.033121999353170395 -0.8322579860687256 0.14223699271678925 0.18277199566364288 -0.9728119969367981
          0.18078699707984924 -0.9795309901237488 -0.08851999789476395 -0.6129080057144165 -0.7892869710922241 -0.03701600059866905
          -0.32906100153923035 -0.8881739974021912 -0.32072800397872925 0.20263899862766266 -0.9316390156745911 -0.30164098739624023
          -0.8768519759178162 -0.3722020089626312 -0.30429598689079285 -0.606099009513855 -0.5368220210075378 -0.586912989616394
          -0.8336589932441711 -0.5447440147399902 0.09092400223016739 -0.9309809803962708 -0.02860100008547306 0.36394599080085754
          -0.8961899876594543 -0.26833298802375793 0.3533270061016083 -0.8459479808807373 -0.5152819752693176 -0.1373170018196106
          -0.9967949986457825 0.051375001668930054 -0.06132100149989128 -0.750527024269104 0.013623000122606754 -0.6607000231742859
          -0.06903000175952911 0.003621000098064542 0.9976080060005188 0.20278599858283997 0.014364000409841537 0.9791179895401001
          0.17486099898815155 -0.0981839969754219 0.9796850085258484 -0.1305209994316101 -0.21741700172424316 0.9673129916191101
          -0.6372550129890442 -0.1329050064086914 0.7591059803962708 -0.8118249773979187 -0.15448200702667236 -0.5630940198898315
          -0.589057981967926 -0.09776400029659271 -0.8021550178527832 -0.735630989074707 -0.26720601320266724 -0.622452974319458
          -0.9467740058898926 -0.24226899445056915 -0.2119559943675995 -0.9841259717941284 -0.11696500331163406 -0.13347099721431732
          -0.9175630211830139 -0.15147699415683746 0.3676050007343292 0.042149998247623444 -0.09519200026988983 -0.994566023349762
          -0.17135100066661835 0.06092900037765503 -0.9833239912986755 -0.22802899777889252 -0.17583200335502625 -0.9576460123062134
          0.25166499614715576 -0.2304529994726181 -0.9399769902229309 -0.8245999813079834 0.2135149985551834 -0.5238760113716125
          -0.42072999477386475 0.10713300108909607 -0.9008380174636841 0.9678620100021362 -0.24724900722503662 -0.045944999903440475
          0.7061470150947571 -0.22815099358558655 -0.6703010201454163 0.6127579808235168 -0.11417499929666519 0.7819790244102478
          0.43759000301361084 -0.23659299314022064 -0.8674899935722351 -0.04696999862790108 -0.20552800595760345 -0.9775230288505554
          -0.07561899721622467 -0.16606900095939636 -0.9832109808921814 -0.35259300470352173 -0.2893649935722351 -0.8899139761924744
          -0.05097699910402298 -0.8124949932098389 -0.5807350277900696 -0.286996990442276 -0.5249249935150146 -0.8013030290603638
          -0.32670900225639343 -0.016952000558376312 -0.9449729919433594 -0.14850400388240814 -0.36077800393104553 -0.920753002166748
          -0.47016701102256775 -0.4504700005054474 -0.7589600086212158 -0.17688299715518951 -0.21487200260162354 -0.9604910016059875
          -0.457720011472702 -0.5948070287704468 -0.660830020904541 -0.7788789868354797 -0.5302010178565979 -0.3350130021572113
          -0.9972400069236755 -0.06773500144481659 0.030386999249458313 -0.9371970295906067 -0.3463830053806305 -0.04099300131201744
          0.5012339949607849 -0.12862800061702728 0.8556979894638062 0.3282710015773773 -0.19796599447727203 0.9236059784889221
          0.03514799848198891 -0.24261200428009033 0.9694870114326477 0.33597099781036377 -0.10899999737739563 0.9355440139770508
          -0.6554579734802246 -0.22480399906635284 0.7209979891777039 -0.5713070034980774 -0.5419129729270935 -0.6163910031318665
          0.0010300000431016088 -0.4486579895019531 -0.8937029838562012 -0.8072720170021057 -0.3494339883327484 -0.47561201453208923
          -0.9744939804077148 -0.1371150016784668 -0.17765699326992035 -0.9775540232658386 -0.1880510002374649 0.09499700367450714
          -0.7945950031280518 -0.10169199854135513 -0.598563015460968 -0.7174400091171265 -0.06760700047016144 -0.6933320164680481
          -0.9251289963722229 -0.18575100600719452 0.3311089873313904 -0.8419089913368225 -0.2930249869823456 0.45312801003456116
          -0.8838719725608826 -0.3224340081214905 0.33882999420166016 -0.6223710179328918 -0.2639870047569275 -0.7368620038032532
          -0.03349300101399422 -0.46153101325035095 -0.8864920139312744 -0.3168419897556305 -0.23506799340248108 -0.9188870191574097
          -0.7243720293045044 -0.1305290013551712 -0.6769390106201172 0.05569000169634819 -0.41457098722457886 -0.9083110094070435
          -0.8552560210227966 0.04164300113916397 -0.5165299773216248 0.8653799891471863 -0.20378300547599792 0.45781099796295166
          0.9574919939041138 -0.2178329974412918 0.18909600377082825 0.8718360066413879 -0.25531700253486633 -0.4179899990558624
          0.5322229862213135 -0.3239760100841522 -0.7821630239486694 0.2814989984035492 -0.22446100413799286 -0.9329389929771423
          0.02200300060212612 -0.11806900054216385 -0.9927610158920288 -0.2898060083389282 -0.548084020614624 -0.7846119999885559
          -0.7137979865074158 -0.4268139898777008 -0.5552669763565063 0.37038901448249817 -0.2517299950122833 0.8941159844398499
          -0.19039499759674072 -0.35696500539779663 0.9145079851150513 0.3228670060634613 -0.00991399958729744 0.9463919997215271
          -0.6784240007400513 -0.3922500014305115 0.621192991733551 0.6946600079536438 -0.11810199916362762 0.7095770239830017
          -0.892553985118866 -0.26072201132774353 0.36792999505996704 -0.11804500222206116 -0.33842501044273376 -0.9335600137710571
          -0.9700300097465515 -0.2423669993877411 -0.01732099987566471 -0.957315981388092 -0.15688000619411469 0.24276499450206757
          -0.9949960112571716 -0.05314600095152855 0.0846019983291626 -0.8641740083694458 -0.36780598759651184 -0.34339800477027893
          -0.5049179792404175 -0.21390500664710999 -0.8362429738044739 -0.2893669903278351 0.06379900127649307 -0.9550899863243103
          -0.13368600606918335 0.14436300098896027 -0.9804530143737793 -0.8613669872283936 -0.26409798860549927 0.43393298983573914
          -0.819445013999939 -0.3051359951496124 0.4851830005645752 0.9759600162506104 -0.12615899741649628 0.17772400379180908
          0.9992039799690247 -0.03958199918270111 -0.004978000186383724 0.5731289982795715 -0.07906299829483032 -0.8156419992446899
          0.6339150071144104 -0.21230599284172058 -0.7436919808387756 0.9037899971008301 0.07000499963760376 -0.42221200466156006
          -0.05627699941396713 -0.15671700239181519 -0.9860389828681946 0.30689099431037903 -0.10999199748039246 -0.9453669786453247
          -0.07876600325107574 0.2123430073261261 -0.974016010761261 -0.29548901319503784 0.0033309999853372574 -0.9553400278091431
          -0.22021199762821198 -0.2840380072593689 0.9331820011138916 0.2800619900226593 -0.2890790104866028 0.9154229760169983
          0.44846099615097046 -0.07973700016736984 0.8902390003204346 -0.7861559987068176 -0.26603901386260986 0.5578370094299316
          0.3248229920864105 0.3727110028266907 0.8692389726638794 0.5416100025177002 0.31906500458717346 0.7777249813079834
          0.3458020091056824 0.2518630027770996 0.9038730263710022 0.6593040227890015 0.09812600165605545 0.7454450130462646
          0.9812809824943542 -0.18177400529384613 0.06360600143671036 0.8103799819946289 0.05823399871587753 0.5830029845237732
          -0.895389974117279 -0.14037300646305084 0.42257800698280334 -0.8840669989585876 0.025693999603390694 0.4666529893875122
          -0.9296320080757141 -0.07789800316095352 0.3601599931716919 -0.8383319973945618 -0.2765739858150482 -0.46979400515556335
          -0.932811975479126 -0.04645499959588051 -0.35735800862312317 -0.891618013381958 0.11523199826478958 0.4378800094127655
          -0.9471650123596191 0.12285300344228745 -0.29628700017929077 -0.9493880271911621 0.3089199960231781 -0.05684399977326393
          -0.3122290074825287 -0.26097801327705383 -0.9134569764137268 0.1959269940853119 0.09103400260210037 -0.9763839840888977
          0.02370999939739704 0.2889910042285919 -0.9570379853248596 0.9659749865531921 -0.20162099599838257 -0.16199299693107605
          0.9914060235023499 -0.07984399795532227 -0.10363300144672394 0.2840920090675354 -0.13746899366378784 -0.9488909840583801
          0.27806800603866577 0.1355849951505661 -0.9509440064430237 0.1467680037021637 0.16916300356388092 -0.9745990037918091
          0.22228799760341644 0.09321200102567673 -0.9705150127410889 0.9539840221405029 -0.10948500037193298 -0.2791540026664734
          0.9480310082435608 -0.11340299993753433 -0.29728201031684875 0.836679995059967 -0.1348229944705963 -0.5308380126953125
          0.19633899629116058 0.025123000144958496 -0.98021399974823 -0.09950999915599823 0.022671999409794807 -0.9947779774665833
          -0.35429099202156067 0.01485500019043684 -0.9350169897079468 -0.2508150041103363 0.055431000888347626 -0.9664469957351685
          -0.6053469777107239 -0.04611799865961075 0.7946239709854126 0.21421800553798676 -0.061964001506567 0.974819004535675
          0.4111819863319397 -0.20838400721549988 0.8874149918556213 -0.9339200258255005 0.14826300740242004 0.32528600096702576
          0.30863499641418457 0.8270289897918701 0.4698599874973297 0.2898640036582947 0.8880789875984192 0.356783002614975
          0.2200859934091568 0.2998819947242737 0.928242027759552 0.06954599916934967 0.6999539732933044 0.7107939720153809
          0.9552749991416931 -0.1668650060892105 -0.24414099752902985 0.7216140031814575 0.3950049877166748 0.5685449838638306
          0.9946950078010559 -0.08502499759197235 0.057909999042749405 -0.9375500082969666 0.03828499838709831 0.3457379937171936
          -0.7199959754943848 0.25672000646591187 0.6447489857673645 -0.9190189838409424 0.26388201117515564 0.29286500811576843
          -0.27151599526405334 0.0762529969215393 -0.9594079852104187 -0.3108319938182831 0.026975000277161598 -0.950082004070282
          -0.7358570098876953 0.5778530240058899 0.35298898816108704 -0.5498110055923462 0.36021798849105835 0.7536259889602661
          -0.6746029853820801 0.369581013917923 -0.6389999985694885 -0.6737080216407776 0.6663079857826233 0.3196110129356384
          -0.6300169825553894 0.7752879858016968 0.044801000505685806 0.5267019867897034 0.044957999140024185 -0.8488609790802002
          0.33123400807380676 0.06252399832010269 -0.941474974155426 0.42116600275039673 0.20615099370479584 -0.883243978023529
          -0.46838000416755676 -0.040362000465393066 -0.8826050162315369 -0.1441120058298111 0.10712499916553497 -0.9837459921836853
          -0.08161100000143051 0.17088399827480316 -0.9819049835205078 0.1345680058002472 0.25220000743865967 -0.9582729935646057
          -0.08034099638462067 0.1887589991092682 -0.9787309765815735 0.9533690214157104 0.2579430043697357 -0.1566919982433319
          0.7623599767684937 0.6392379999160767 -0.10090599954128265 0.5190320014953613 -0.23835599422454834 -0.8208479881286621
          0.7579960227012634 0.022809000685811043 -0.6518599987030029 -0.40849098563194275 -0.06377500295639038 -0.9105309844017029
          -0.3503879904747009 0.18614700436592102 -0.9179199934005737 -0.17504200339317322 0.15919700264930725 -0.9716050028800964
          -0.570963978767395 0.23471599817276 -0.7867069840431213 -0.5029109716415405 0.07151299715042114 -0.8613749742507935
          -0.6523000001907349 0.2373329997062683 0.7198460102081299 -0.8562909960746765 0.4684630036354065 0.21750499308109283
          -0.7033789753913879 0.6623349785804749 0.2580130100250244 -0.8027650117874146 0.5955139994621277 -0.03050900064408779
          -0.028915999457240105 0.9870709776878357 0.1576559990644455 -0.07531700283288956 0.9846140146255493 -0.15768100321292877
          0.6543840169906616 0.7068759799003601 -0.2685289978981018 0.020611999556422234 0.9808329939842224 -0.19375500082969666
          0.19950400292873383 0.8942559957504272 -0.40063101053237915 -0.6319559812545776 0.4771159887313843 0.6107310056686401
          0.25652098655700684 0.012103999964892864 -0.966463029384613 -0.22735999524593353 -0.06870099902153015 -0.9713839888572693
          -0.31842899322509766 0.8828039765357971 0.3453400135040283 -0.44111600518226624 0.727948009967804 0.5248889923095703
          -0.4847869873046875 0.48597100377082825 0.7271959781646729 -0.45001599192619324 0.7974990010261536 -0.4018459916114807
          -0.176938995718956 0.9840710163116455 0.017243999987840652 -0.1952729970216751 0.9092410206794739 0.36762699484825134
          0.5730730295181274 0.1038609966635704 -0.8128960132598877 0.005644999910145998 0.023288000375032425 -0.9997130036354065
          0.4491499960422516 0.2962940037250519 -0.8428959846496582 0.7868109941482544 0.3081609904766083 -0.5347579717636108
          -0.27775299549102783 0.13528500497341156 -0.9510790109634399 0.48418501019477844 0.11012899875640869 -0.8680070042610168
          0.264055997133255 0.9349820017814636 0.23681999742984772 0.6666330099105835 0.737542986869812 -0.10784299671649933
          0.05805300176143646 0.9951140284538269 0.07986299693584442 -0.1066180020570755 0.7144280076026917 0.6915379762649536
          -0.16684800386428833 -0.13559900224208832 -0.9766139984130859 0.3132050037384033 0.6749609708786011 -0.6680790185928345
          0.7853490114212036 -0.36423298716545105 -0.500560998916626 -0.22402800619602203 -0.2772060036659241 -0.934328019618988
          -0.4522959887981415 0.061911001801490784 -0.8897160291671753 -0.5412669777870178 0.09399499744176865 -0.8355799913406372
          -0.7987480163574219 0.4671590030193329 0.3791620135307312 -0.32808899879455566 0.9231849908828735 0.20021699368953705
          0.21164900064468384 0.9744549989700317 0.07511500269174576 0.2077540010213852 0.9361969828605652 0.2835020124912262
          0.4334949851036072 0.8919299840927124 0.12862199544906616 0.33202698826789856 0.8873649835586548 0.3199079930782318
          -0.18240700662136078 -0.2813520133495331 -0.9421089887619019 0.09703599661588669 -0.32079899311065674 -0.9421640038490295
          -0.011707999743521214 -0.27523601055145264 -0.9613050222396851 -0.26425701379776 0.2549790143966675 -0.9301369786262512
          0.054478999227285385 0.9299790263175964 0.363552987575531 0.2785170078277588 0.8256319761276245 0.4906730055809021
          -0.01568100042641163 0.847100019454956 0.5312020182609558 -0.16251400113105774 0.9866679906845093 -0.008708000183105469
          0.15471099317073822 0.940841019153595 0.30146700143814087 -0.41269800066947937 -0.041735999286174774 -0.9099109768867493
          0.8043299913406372 0.01447299961000681 -0.5940070152282715 -0.2917740046977997 -0.02122199907898903 -0.9562519788742065
          0.4261080026626587 0.902006983757019 -0.06938599795103073 -0.06626199930906296 0.5254589915275574 -0.848235011100769
          0.30989399552345276 0.8027330040931702 0.5094950199127197 -0.3030489981174469 -0.15918999910354614 -0.9395849704742432
          -0.07162000238895416 -0.06945399940013885 -0.9950109720230103 -0.04134900122880936 -0.4080680012702942 -0.9120150208473206
          -0.14778700470924377 -0.30042600631713867 -0.9422860145568848 0.14329299330711365 0.13492600619792938 -0.9804400205612183
          -0.22765399515628815 -0.29249000549316406 -0.9287750124931335 -0.022440999746322632 -0.33302098512649536 -0.9426519870758057
          -0.23959000408649445 0.09528400003910065 -0.9661870002746582 -0.1188260018825531 0.5404490232467651 -0.8329430222511292
          0.3291569948196411 0.9330329895019531 -0.14527900516986847 0.06987199932336807 0.28224700689315796 -0.956794023513794
          0.09986399859189987 0.022230999544262886 -0.9947530031204224
          <InformationKey name="L2_NORM_RANGE" location="vtkDataArray" length="2">
            <Value index="0">
              0.99999927012
            </Value>
            <Value index="1">
              1.0000006911
            </Value>
          </InformationKey>
        </DataArray>
      </PointData>
      <CellData>
      </CellData>
      <Points>
        <DataArray type="Float32" Name="Points" NumberOfComponents="3" format="ascii" RangeMin="0.031735218722722204" RangeMax="0.10310714505971079">
          0.003089000005275011 -0.09559500217437744 0.025801999494433403 0.0036730000283569098 -0.08966699987649918 0.024473000317811966
          0.0009169999975711107 -0.09287499636411667 0.023777000606060028 0.0028470000252127647 -0.09710600227117538 0.025800999253988266
          0.005001000128686428 -0.09277399629354477 0.025033000856637955 0.003604999976232648 -0.0970190018415451 0.025855999439954758
          0.0010740000288933516 -0.08904100209474564 0.02348800003528595 0.0003239999932702631 -0.08554600179195404 0.022808000445365906
          0.0024679999332875013 -0.08699800074100494 0.023559000343084335 0.00380899989977479 -0.08752600103616714 0.02411700040102005
          0.004348999820649624 -0.08820900321006775 0.024311000481247902 0.005301999859511852 -0.09034399688243866 0.024514000862836838
          0.00011800000356743112 -0.09527599811553955 0.02315700054168701 0.000011000000085914508 -0.09294400364160538 0.023951999843120575
          0.002481000032275915 -0.09810200333595276 0.02531999908387661 0.003135999897494912 -0.0982770025730133 0.025551000609993935
          0.004327999893575907 -0.09658999741077423 0.025637999176979065 0.005590999964624643 -0.09171599894762039 0.02453400008380413
          0.003829000052064657 -0.09808599948883057 0.025460999459028244 -0.002426000079140067 -0.08545999974012375 0.024978000670671463
          -0.0019280000124126673 -0.0872659981250763 0.02546899951994419 -0.0016070000128820539 -0.09011899679899216 0.024713000282645226
          0.001449999981559813 -0.0862250030040741 0.021703999489545822 -0.0031389999203383923 -0.08323699980974197 0.023517999798059464
          -0.0008520000264979899 -0.08119399845600128 0.020579999312758446 0.0006590000120922923 -0.08483800292015076 0.020639000460505486
          0.003727999981492758 -0.08704700320959091 0.023426000028848648 0.002271000063046813 -0.08680500090122223 0.02260500006377697
          0.005123000126332045 -0.08914600312709808 0.023050999268889427 0.005373000167310238 -0.08979000151157379 0.023811999708414078
          -0.0003150000120513141 -0.09489499777555466 0.024327000603079796 -0.001101000001654029 -0.09673900157213211 0.024612000212073326
          -0.0003349999897181988 -0.09873999655246735 0.024341000244021416 0.0002460000105202198 -0.09832300245761871 0.02380100078880787
          0.0020149999763816595 -0.09901099652051926 0.02485099993646145 0.003286000108346343 -0.09925000369548798 0.02497199922800064
          0.005623000208288431 -0.0968329980969429 0.02227500081062317 0.005667000077664852 -0.09085399657487869 0.02371400035917759
          -0.0029639999847859144 -0.08687099814414978 0.02500000037252903 -0.0037869999650865793 -0.08469899743795395 0.023579999804496765
          -0.00190100003965199 -0.0954819992184639 0.024365000426769257 -0.0028589998837560415 -0.0905120000243187 0.024017000570893288
          0.002094999887049198 -0.08697500079870224 0.021581999957561493 -0.004222000017762184 -0.0788239985704422 0.02230199985206127
          -0.0026569999754428864 -0.07263600081205368 0.019892999902367592 -0.002722000004723668 -0.06997200101613998 0.017911000177264214
          -0.0005469999741762877 -0.08108200132846832 0.018880000337958336 0.001943000010214746 -0.09164399653673172 0.01776999980211258
          0.005967000033706427 -0.092119000852108 0.022221000865101814 -0.0019199999514967203 -0.09860000014305115 0.02279300056397915
          0.00041099998634308577 -0.09934700280427933 0.024495000019669533 0.0012639999622479081 -0.09939199686050415 0.02473899908363819
          0.002096999902278185 -0.09972900152206421 0.024210000410676003 0.0032259998843073845 -0.09988299757242203 0.02384999953210354
          0.002741999924182892 -0.09995999932289124 0.024173999205231667 0.005442999769002199 -0.09707599878311157 0.021313000470399857
          0.004763999953866005 -0.09822099655866623 0.021062999963760376 -0.004288999829441309 -0.08886999636888504 0.023016000166535378
          -0.005067999940365553 -0.08358900249004364 0.022453999146819115 -0.0036609999369829893 -0.09594400227069855 0.02284199930727482
          -0.004244000185281038 -0.060965001583099365 0.017247000709176064 -0.005743000190705061 -0.06074099987745285 0.01787400059401989
          -0.007170999888330698 -0.06095099821686745 0.01803000085055828 -0.008422999642789364 -0.06777500361204147 0.018642999231815338
          -0.0011690000537782907 -0.08393500000238419 0.01597999967634678 -0.00356299988925457 -0.08295100182294846 0.014504999853670597
          -0.0040799998678267 -0.06104300171136856 0.016429999843239784 -0.004097000230103731 -0.060756001621484756 0.015526000410318375
          -0.005456999875605106 -0.06832599639892578 0.014538999646902084 0.0025049999821931124 -0.09595099836587906 0.01694200001657009
          0.0016509999986737967 -0.09212499856948853 0.014945999719202518 0.004645000211894512 -0.09654200077056885 0.01955999992787838
          0.0010089999996125698 -0.08880200237035751 0.014708000235259533 -0.00011100000119768083 -0.0871570035815239 0.015716999769210815
          -0.00040600000647827983 -0.10042200237512589 0.021908000111579895 0.001972000114619732 -0.10043500363826752 0.02323799952864647
          -0.0024850000627338886 -0.09967000037431717 0.01983099989593029 -0.004085000138729811 -0.09694299846887589 0.02127999998629093
          0.0030900000128895044 -0.1002340018749237 0.02269499935209751 0.004430999979376793 -0.09800100326538086 0.0200009997934103
          0.00279300007969141 -0.09995999932289124 0.021084999665617943 0.002819000044837594 -0.09984900057315826 0.020135000348091125
          -0.0064559997990727425 -0.0898279994726181 0.017636999487876892 -0.005475000012665987 -0.09334199875593185 0.01729400083422661
          -0.007792000193148851 -0.0816510021686554 0.015769999474287033 -0.005288999993354082 -0.0578170008957386 0.017813999205827713
          -0.004614999983459711 -0.05785899981856346 0.0175199992954731 -0.006140999961644411 -0.05432000011205673 0.016884999349713326
          -0.0055599999614059925 -0.054614998400211334 0.017266999930143356 -0.00798300001770258 -0.04969000071287155 0.016665000468492508
          -0.009960000403225422 -0.049782998859882355 0.01577799953520298 -0.00991700030863285 -0.06200199946761131 0.01533500012010336
          -0.008391999639570713 -0.07523199915885925 0.015096999704837799 -0.010835000313818455 -0.053025998175144196 0.01413699984550476
          -0.004255999810993671 -0.087848000228405 0.013646000064909458 -0.000506000011228025 -0.08709099888801575 0.014986000023782253