<?xml version="1.0"?>
<VTKFile type="PolyData" version="0.1" byte_order="LittleEndian" header_type="UInt32" compressor="vtkZLibDataCompressor">
  <PolyData>
    <Piece NumberOfPoints="77" NumberOfVerts="0" NumberOfLines="0" NumberOfStrips="0" NumberOfPolys="150">
      <PointData Normals="Normals">
        <DataArray type="Float32" Name="Normals" NumberOfComponents="3" format="ascii" RangeMin="0.9999994245979374" RangeMax="1.0000005356991641">
          0.07589200139045715 0.37804698944091797 0.9226700067520142 -0.15277600288391113 0.2781600058078766 0.9483069777488708
          0.27952900528907776 -0.44232800602912903 0.8521789908409119 0.42243701219558716 -0.006395999807864428 0.9063699841499329
          -0.19972099363803864 0.5606870055198669 0.8035809993743896 0.16977299749851227 0.9393309950828552 0.29805099964141846
          -0.12110000103712082 0.9624770283699036 0.24284300208091736 0.576399028301239 0.5306410193443298 0.6214370131492615
          -0.16251599788665771 -0.182545006275177 0.9696729779243469 -0.494361013174057 -0.5304309725761414 0.6886579990386963
          -0.4655660092830658 0.4712739884853363 0.7490990161895752 -0.4683170020580292 -0.6810579895973206 0.5628849864006042
          -0.09900300204753876 -0.9926239848136902 0.06997500360012054 0.7087389826774597 -0.7044379711151123 0.03817199915647507
          0.6824160218238831 -0.611204981803894 0.40091899037361145 0.9804270267486572 -0.07108999788761139 0.1836010068655014
          0.7288560271263123 0.6743599772453308 -0.11835599690675735 0.707440972328186 0.7019180059432983 -0.08270099759101868
          -0.16177800297737122 0.9276710152626038 0.3365339934825897 0.06452900171279907 0.9183909893035889 -0.3903760015964508
          -0.09147199988365173 0.12160699814558029 -0.9883540272712708 0.16154299676418304 0.7274150252342224 -0.6669120192527771
          -0.5013949871063232 -0.7406780123710632 0.44721299409866333 -0.19420300424098969 -0.5998079776763916 0.7762190103530884
          -0.3901990056037903 -0.8687819838523865 0.3048979938030243 0.014619999565184116 0.7074350118637085 0.7066270112991333
          -0.15238399803638458 0.2860639989376068 0.9460160136222839 0.012210000306367874 -0.9275199770927429 -0.3735730051994324
          -0.4778890013694763 -0.8699349761009216 -0.121799997985363 -0.3334980010986328 -0.7760699987411499 -0.5352510213851929
          0.29975900053977966 -0.8912469744682312 -0.34032800793647766 -0.22991499304771423 -0.7952240109443665 -0.5610330104827881
          0.8860660195350647 -0.4451240003108978 0.12942799925804138 0.8787350058555603 0.4536139965057373 -0.14852100610733032
          0.11333300173282623 0.985962986946106 0.12261000275611877 0.21493999660015106 0.9575139880180359 0.1922679990530014
          -0.09698899835348129 0.12302099913358688 -0.9876530170440674 -0.34052199125289917 0.7589899897575378 -0.5549589991569519
          -0.041168998926877975 0.9974949955940247 -0.05752100050449371 -0.36816900968551636 -0.601809024810791 -0.70871502161026
          0.4411010146141052 -0.33082398772239685 -0.8342570066452026 0.8347640037536621 0.045083001255989075 -0.5487589836120605
          0.2610650062561035 -0.8629819750785828 0.4325590133666992 0.10511600226163864 -0.10236799716949463 0.9891769886016846
          0.022866999730467796 0.35866600275039673 0.9331859946250916 0.2075349986553192 0.31740498542785645 0.9253020286560059
          0.5096179842948914 0.3310140073299408 0.7941780090332031 -0.06580699980258942 -0.8264930248260498 -0.5590869784355164
          0.4318769872188568 -0.7932999730110168 0.4291360080242157 0.13170300424098969 0.7680839896202087 0.6266589760780334
          -0.3442550003528595 0.8979340195655823 0.27423301339149475 -0.3172770142555237 0.4134550094604492 -0.8534579873085022
          -0.9068419933319092 -0.024490000680088997 -0.4207580089569092 -0.686149001121521 0.7252529859542847 0.05662599951028824
          -0.987870991230011 0.1515049934387207 -0.034005001187324524 -0.7454659938812256 0.3805310130119324 -0.5472450256347656
          0.2671230137348175 -0.537434995174408 0.7998800277709961 0.5165979862213135 0.1712310016155243 0.8389319777488708
          -0.7936630249023438 -0.410645991563797 -0.448852002620697 -0.9847379922866821 -0.15532800555229187 0.07850900292396545
          -0.9619489908218384 -0.23966200649738312 -0.13120999932289124 0.218422994017601 -0.9754319787025452 -0.02869500033557415
          -0.047276001423597336 -0.9585440158843994 0.2809959948062897 -0.9039459824562073 0.24279500544071198 0.35203900933265686
          -0.3793100118637085 0.27160799503326416 0.8845070004463196 -0.911296010017395 0.3987399935722351 0.1026960015296936
          -0.9691500067710876 -0.16738200187683105 0.18091699481010437 -0.9018139839172363 -0.17152400314807892 0.39662399888038635
          -0.4599280059337616 -0.24937699735164642 0.8522189855575562 0.09005499631166458 -0.12133199721574783 0.9885179996490479
          -0.6904540061950684 -0.7226200103759766 0.03306400030851364 -0.8973159790039062 0.439628005027771 -0.039381999522447586
          -0.6965569853782654 0.7172049880027771 -0.020635999739170074 -0.9456149935722351 -0.17508000135421753 0.274152010679245
          -0.9756090044975281 0.2195110023021698 0.0013259999686852098 -0.8289899826049805 0.5544350147247314 0.07333400100469589
          -0.8750069737434387 0.46423500776290894 0.13729199767112732
          <InformationKey name="L2_NORM_RANGE" location="vtkDataArray" length="2">
            <Value index="0">
              0.9999994246
            </Value>
            <Value index="1">
              1.0000005357
            </Value>
          </InformationKey>
        </DataArray>
      </PointData>
      <CellData>
      </CellData>
      <Points>
        <DataArray type="Float32" Name="Points" NumberOfComponents="3" format="ascii" RangeMin="0.04545548127612493" RangeMax="0.059850856984539215">
          0.05727799981832504 -0.0027920000720769167 -0.006990999914705753 0.05389299988746643 -0.0032909999135881662 -0.006645999848842621
          0.05659100040793419 -0.005601999815553427 -0.006523000076413155 0.05761000141501427 -0.00458399998024106 -0.006574000231921673
          0.05420299991965294 -0.002355000004172325 -0.007027000188827515 0.057075001299381256 -0.0020129999611526728 -0.00750300008803606
          0.054590001702308655 -0.0020409999415278435 -0.007226999849081039 0.05816100165247917 -0.002503999974578619 -0.007335999980568886
          0.054951999336481094 -0.004557999782264233 -0.006434000097215176 0.053895000368356705 -0.0042130001820623875 -0.006552999839186668
          0.0533830001950264 -0.002644999884068966 -0.0073009999468922615 0.05546500161290169 -0.005636000074446201 -0.006461999844759703
          0.055442001670598984 -0.005934999790042639 -0.009948999620974064 0.057659998536109924 -0.004939999897032976 -0.010510999709367752
          0.057597000151872635 -0.005117000080645084 -0.006787000223994255 0.0586169995367527 -0.003785999957472086 -0.0075240000151097775
          0.057833001017570496 -0.0028639999218285084 -0.01114100031554699 0.05813099816441536 -0.002400000113993883 -0.008662000298500061
          0.05215299874544144 -0.0022929999977350235 -0.008564000017940998 0.048395998775959015 -0.002309999894350767 -0.012505999766290188
          0.05415299907326698 -0.004255000036209822 -0.013650000095367432 0.057245999574661255 -0.00330700003542006 -0.01347300037741661
          0.05426599830389023 -0.004441000055521727 -0.006928999908268452 0.053412001579999924 -0.004296000115573406 -0.0070779998786747456
          0.05415099859237671 -0.004714000038802624 -0.007710000034421682 0.05164400115609169 -0.0027570000384002924 -0.007845999673008919
          0.052712999284267426 -0.003287999890744686 -0.007313999813050032 0.04966399818658829 -0.005477000027894974 -0.012973999604582787
          0.05413400009274483 -0.005514000076800585 -0.01285600010305643 0.05531400069594383 -0.0061690001748502254 -0.013425000011920929
          0.056407999247312546 -0.00609199982136488 -0.013567999936640263 0.053369998931884766 -0.005107000004500151 -0.013268999755382538
          0.0580499991774559 -0.005022000055760145 -0.011952999979257584 0.0582909993827343 -0.0033400000538676977 -0.012513999827206135
          0.05041300132870674 -0.0021639999467879534 -0.009081999771296978 0.04667900130152702 -0.0013810000382363796 -0.008528999984264374
          0.05019799992442131 -0.003696999978274107 -0.013100000098347664 0.04521099850535393 -0.0015439999988302588 -0.011668000370264053
          0.04546999931335449 -0.0012390000047162175 -0.009863000363111496 0.05428000167012215 -0.005386999808251858 -0.013368000276386738
          0.05743600055575371 -0.005555999930948019 -0.013559999875724316 0.05821700021624565 -0.0039820000529289246 -0.013306000269949436
          0.05098700150847435 -0.005013999994844198 -0.0075079998932778835 0.05034000054001808 -0.0047160000540316105 -0.007108999881893396
          0.05155399814248085 -0.0037589999847114086 -0.007282999809831381 0.05113000050187111 -0.0032420000061392784 -0.007373000029474497
          0.04847399890422821 -0.0034620000515133142 -0.006624000146985054 0.04579799994826317 -0.006616999860852957 -0.01233999989926815
          0.049042001366615295 -0.005526000168174505 -0.007075000088661909 0.046835001558065414 -0.00228899996727705 -0.00570000009611249
          0.0450889989733696 -0.0014140000566840172 -0.008349999785423279 0.044996000826358795 -0.002901999978348613 -0.012697000056505203
          0.04454899951815605 -0.004503999836742878 -0.01284599956125021 0.04457800090312958 -0.0015279999934136868 -0.009809999726712704
          0.04402400180697441 -0.002326000016182661 -0.011075999587774277 0.044241998344659805 -0.0026940000243484974 -0.011943000368773937
          0.04692399874329567 -0.005785000044852495 -0.005179000087082386 0.047527000308036804 -0.0035620001144707203 -0.005257000215351582
          0.04436400160193443 -0.005781999789178371 -0.012264000251889229 0.04456600174307823 -0.006366000045090914 -0.011462000198662281
          0.04456000030040741 -0.00648899981752038 -0.010614000260829926 0.047067999839782715 -0.0064199999906122684 -0.008849999867379665
          0.0458189994096756 -0.006632000207901001 -0.00661400007084012 0.04530800133943558 -0.00266100000590086 -0.006188000086694956
          0.045878998935222626 -0.004015000071376562 -0.004964000079780817 0.04520900174975395 -0.005841999780386686 -0.009882999584078789
          0.04531100019812584 -0.004265999887138605 -0.009538999758660793 0.04496999830007553 -0.005741999950259924 -0.006012999918311834
          0.04574999958276749 -0.004749000072479248 -0.004941000137478113 0.04664599895477295 -0.005113999824970961 -0.00482900021597743
          0.04451199993491173 -0.00671500014141202 -0.009007999673485756 0.04451899975538254 -0.006372000090777874 -0.009929999709129333
          0.0449879989027977 -0.005975000094622374 -0.009321000427007675 0.04464299976825714 -0.0065819998271763325 -0.008065000176429749
          0.04533400014042854 -0.005497999954968691 -0.009337999857962132 0.04526200145483017 -0.005799999926239252 -0.00865700002759695
          0.044541001319885254 -0.006459999829530716 -0.008566999807953835
          <InformationKey name="L2_NORM_RANGE" location="vtkDataArray" length="2">
            <Value index="0">
              0.045455481276
            </Value>
            <Value index="1">
              0.059850856985
            </Value>
          </InformationKey>
        </DataArray>
      </Points>
      <Verts>
        <DataArray type="Int64" Name="connectivity" format="ascii" RangeMin="1e+299" RangeMax="-1e+299">
        </DataArray>
        <DataArray type="Int64" Name="offsets" format="ascii" RangeMin="1e+299" RangeMax="-1e+299">
        </DataArray>
      </Verts>
      <Lines>
        <DataArray type="Int64" Name="connectivity" format="ascii" RangeMin="1e+299" RangeMax="-1e+299">
        </DataArray>
        <DataArray type="Int64" Name="offsets" format="ascii" RangeMin="1e+299" RangeMax="-1e+299">
        </DataArray>
      </Lines>
      <Strips>
        <DataArray type="Int64" Name="connectivity" format="ascii" RangeMin="1e+299" RangeMax="-1e+299">
        </DataArray>
        <DataArray type="Int64" Name="offsets" format="ascii" RangeMin="1e+299" RangeMax="-1e+299">
        </DataArray>
      </Strips>
      <Polys>
        <DataArray type="Int32" Name="connectivity" format="ascii" RangeMin="0" RangeMax="76">
          0 1 2 3 0 2
          1 0 4 5 6 0
          0 7 5 0 3 7
          0 6 4 2 1 8
          8 1 9 1 4 10
          9 1 10 11 12 2
          12 13 2 14 2 13
          11 2 8 2 14 3
          7 3 15 15 3 14
          10 4 6 5 16 6
          7 17 5 16 5 17
          10 6 18 19 18 6
          19 6 20 21 20 6
          6 16 21 17 7 15
          9 22 8 8 22 11
          10 23 9 9 23 24
          9 24 22 25 26 10
          25 10 18 23 10 26
          24 12 11 24 11 22
          24 27 12 12 28 29
          12 29 30 31 28 12
          12 27 31 13 12 30
          13 30 32 13 15 14
          32 16 13 15 13 16
          17 15 16 33 16 32
          16 33 21 34 25 18
          34 18 19 35 34 19
          19 20 36 19 37 38
          37 19 36 19 38 35
          20 31 27 27 36 20
          20 30 29 20 29 39
          30 20 40 20 39 31
          20 21 40 33 41 21
          41 40 21 23 42 27
          24 23 27 43 23 26
          42 23 43 25 44 26
          25 45 44 46 25 35
          25 46 45 34 35 25
          43 26 44 27 47 36
          27 48 47 27 42 48
          28 39 29 28 31 39
          32 30 40 41 32 40
          41 33 32 46 35 49
          35 38 50 49 35 50
          36 51 37 51 36 52
          52 36 47 53 38 37
          54 53 37 54 37 55
          55 37 51 50 38 53
          43 48 42 46 48 43
          45 46 43 43 44 45
          46 56 48 57 56 46
          49 57 46 52 47 58
          59 58 47 47 60 59
          61 60 47 47 48 61
          48 62 61 62 48 56
          63 49 50 49 63 64
          49 64 57 50 53 63
          55 51 52 52 54 55
          52 58 59 59 65 52
          66 54 52 52 65 66
          54 63 53 54 66 63
          56 67 62 67 56 68
          56 69 68 57 69 56
          57 64 69 65 59 60
          60 61 70 71 60 70
          71 72 60 65 60 72
          62 70 61 73 70 62
          62 67 73 66 74 63
          64 63 67 67 63 74
          68 64 67 68 69 64
          65 74 66 74 65 72
          73 67 75 75 67 74
          70 76 71 76 70 73
          76 72 71 74 72 75
          72 76 75 75 76 73
        </DataArray>
        <DataArray type="Int32" Name="offsets" format="ascii" RangeMin="3" RangeMax="450">
          3 6 9 12 15 18
          21 24 27 30 33 36
          39 42 45 48 51 54
          57 60 63 66 69 72
          75 78 81 84 87 90
          93 96 99 102 105 108
          111 114 117 120 123 126
          129 132 135 138 141 144
          147 150 153 156 159 162
          165 168 171 174 177 180
          183 186 189 192 195 198
          201 204 207 210 213 216
          219 222 225 228 231 234
          237 240 243 246 249 252
          255 258 261 264 267 270
          273 276 279 282 285 288
          291 294 297 300 303 306
          309 312 315 318 321 324
          327 330 333 336 339 342
          345 348 351 354 357 360
          363 366 369 372 375 378
          381 384 387 390 393 396
          399 402 405 408 411 414
          417 420 423 426 429 432
          435 438 441 444 447 450
        </DataArray>
      </Polys>
    </Piece>
  </PolyData>
</VTKFile>
