<?xml version="1.0"?>
<VTKFile type="PolyData" version="0.1" byte_order="LittleEndian" header_type="UInt32" compressor="vtkZLibDataCompressor">
  <PolyData>
    <Piece NumberOfPoints="57" NumberOfVerts="0" NumberOfLines="0" NumberOfStrips="0" NumberOfPolys="110">
      <PointData Normals="Normals">
        <DataArray type="Float32" Name="Normals" NumberOfComponents="3" format="ascii" RangeMin="0.9999994919964827" RangeMax="1.0000004710961719">
          0.3585140109062195 0.3693310022354126 0.8573579788208008 0.10869500041007996 0.49845701456069946 0.8600729703903198
          0.271465003490448 0.8959320187568665 0.3515850007534027 0.2065100073814392 0.5722529888153076 0.7936499714851379
          0.16144099831581116 -0.33290499448776245 0.9290379881858826 0.445699006319046 0.05463400110602379 0.8935139775276184
          0.49686399102211 -0.6724209785461426 0.5486130118370056 0.40156999230384827 -0.39941099286079407 0.8241440057754517
          0.20766299962997437 0.9103220105171204 0.35803601145744324 0.28345298767089844 0.25666099786758423 0.9240019917488098
          0.059029001742601395 0.8908129930496216 -0.45051899552345276 0.2086700052022934 0.9751120209693909 -0.07492300122976303
          -0.07740999758243561 0.8438270092010498 0.5310029983520508 -0.4235270023345947 0.22576600313186646 0.8773000240325928
          -0.8006569743156433 0.41659098863601685 0.4305810034275055 0.05408500134944916 -0.5853319764137268 0.8089879751205444
          0.21155500411987305 -0.8063229918479919 -0.5523480176925659 0.025993000715970993 -0.9466760158538818 -0.3211379945278168
          -0.15104900300502777 -0.27324599027633667 0.9500110149383545 -0.41076600551605225 -0.9105939865112305 0.045719001442193985
          0.34075498580932617 -0.9397299885749817 0.02817399986088276 -0.42472100257873535 -0.647491991519928 0.6327450275421143
          0.5705609917640686 0.6539120078086853 -0.496849000453949 0.6628260016441345 0.5642910003662109 0.49217599630355835
          0.477618008852005 -0.27926498651504517 0.833001971244812 0.10491099953651428 0.7194240093231201 -0.686601996421814
          -0.14711900055408478 0.24333399534225464 -0.9587200284004211 -0.2450290024280548 0.49244698882102966 -0.8351389765739441
          -0.08315300196409225 0.9817969799041748 -0.17076200246810913 -0.9024329781532288 0.018825000151991844 0.430418998003006
          -0.5933889746665955 0.8034579753875732 0.04842999950051308 -0.8767629861831665 0.46432000398635864 0.1252720057964325
          -0.9034770131111145 0.3375760018825531 0.2641420066356659 -0.9705029726028442 -0.0004309999931138009 0.24108999967575073
          -0.9774720072746277 0.07758600264787674 0.19628700613975525 -0.47221899032592773 -0.10542900115251541 -0.8751540184020996
          -0.8982920050621033 -0.14307400584220886 -0.4154529869556427 -0.10198599845170975 -0.013523999601602554 -0.9946939945220947
          -0.6226860284805298 -0.5344809889793396 -0.5714830160140991 0.2186170071363449 -0.4507730007171631 -0.8654540181159973
          0.9174950122833252 -0.35596901178359985 0.17745299637317657 -0.9419639706611633 -0.09885299950838089 0.32082900404930115
          -0.997829020023346 0.0310830008238554 0.058058999478816986 -0.972091019153595 0.22593100368976593 0.06320299953222275
          0.9843270182609558 0.17116999626159668 0.042447999119758606 0.6053360104560852 0.0034600000362843275 -0.7959619760513306
          -0.15637099742889404 0.3410309851169586 -0.926954984664917 -0.5130760073661804 0.7715920209884644 -0.3760310113430023
          -0.7309430241584778 0.6823390126228333 -0.011661999858915806 -0.8049229979515076 0.5784159898757935 0.13241499662399292
          -0.765591025352478 0.643248975276947 -0.01006999984383583 -0.9858279824256897 0.1666489988565445 -0.01928599923849106
          -0.9791420102119446 -0.15281300246715546 -0.13390199840068817 -0.973809003829956 0.13663700222969055 0.18173299729824066
          -0.8160960078239441 0.5638520121574402 -0.1267170011997223 -0.6327750086784363 0.2126850038766861 -0.7445539832115173
          -0.9140790104866028 0.24030500650405884 -0.3266710042953491
          <InformationKey name="L2_NORM_RANGE" location="vtkDataArray" length="2">
            <Value index="0">
              0.999999492
            </Value>
            <Value index="1">
              1.0000004711
            </Value>
          </InformationKey>
        </DataArray>
      </PointData>
      <CellData>
      </CellData>
      <Points>
        <DataArray type="Float32" Name="Points" NumberOfComponents="3" format="ascii" RangeMin="0.03617969541222377" RangeMax="0.04743484284075801">
          0.017653999850153923 -0.001382000045850873 -0.034474000334739685 0.020309999585151672 -0.0015160000184550881 -0.03467800095677376
          0.018136000260710716 -0.00004400000034365803 -0.03615399822592735 0.01588200032711029 0.0004030000127386302 -0.03418099880218506
          0.020137999206781387 -0.0029539999086409807 -0.034060999751091 0.016085000708699226 -0.0037589999847114086 -0.032836999744176865
          0.016029000282287598 -0.004807999823242426 -0.03320999816060066 0.017389999702572823 -0.0037090000696480274 -0.03374499827623367
          0.021252000704407692 0.000056000000768108293 -0.0355600006878376 0.020990999415516853 -0.003197999903932214 -0.03421600162982941
          0.020003000274300575 -0.0013139999937266111 -0.03932899981737137 0.016627000644803047 0.0006910000229254365 -0.03698299825191498
          0.01537299994379282 0.0007089999853633344 -0.03436899930238724 0.014498000033199787 -0.0021349999587982893 -0.03307899832725525
          0.014026000164449215 0.0005590000073425472 -0.03530700132250786 0.021477999165654182 -0.0035429999697953463 -0.034311000257730484
          0.015494000166654587 -0.005981000140309334 -0.03933800011873245 0.018302999436855316 -0.005563999991863966 -0.04083399847149849
          0.015522999688982964 -0.0044200001284480095 -0.03271099925041199 0.013650000095367432 -0.006572999991476536 -0.03875900059938431
          0.014945000410079956 -0.006384000182151794 -0.03840800002217293 0.014930999837815762 -0.0050559998489916325 -0.03328400105237961
          0.02275099977850914 -0.0019859999883919954 -0.04129499942064285 0.02365799993276596 -0.0010100000072270632 -0.03671199828386307
          0.02213199995458126 -0.0034719998948276043 -0.03441699966788292 0.015499000437557697 -0.00047599998652003706 -0.040084999054670334
          0.01846499927341938 -0.003085999982431531 -0.04095900058746338 0.019902000203728676 -0.002553999889642 -0.041405998170375824
          0.014507999643683434 0.0005849999724887311 -0.037372998893260956 0.014019999653100967 -0.0035830000415444374 -0.03387400135397911
          0.013752000406384468 0.000577000027988106 -0.03610900044441223 0.01396199967712164 -0.004155999980866909 -0.03535100072622299
          0.013346999883651733 0.00015100000018719584 -0.03647499904036522 0.012887000106275082 -0.00060299999313429 -0.03772199898958206
          0.013772999867796898 -0.003659999929368496 -0.03625300154089928 0.012992000207304955 -0.0025430000387132168 -0.04027099907398224
          0.012866999953985214 -0.00456500006839633 -0.03981399908661842 0.01522899977862835 -0.0018060000147670507 -0.04043800011277199
          0.013004999607801437 -0.005594999995082617 -0.03930399939417839 0.021952999755740166 -0.004666999913752079 -0.04142799973487854
          0.023832999169826508 -0.0025110000278800726 -0.036058999598026276 0.013659999705851078 -0.004503999836742878 -0.034678999334573746
          0.012984000146389008 -0.0056420001201331615 -0.0385110005736351 0.013151999562978745 -0.004906999878585339 -0.03691500052809715
          0.023854000493884087 -0.0015920000150799751 -0.03662699833512306 0.022460000589489937 -0.002392000053077936 -0.04171200096607208
          0.013333999551832676 -0.0005360000068321824 -0.04035099968314171 0.013245999813079834 -0.00021499999274965376 -0.03988000005483627
          0.013081000186502934 0.00011300000187475234 -0.037703998386859894 0.013491000048816204 -0.004480000119656324 -0.0352259986102581
          0.013530000112950802 -0.004449999891221523 -0.03600500151515007 0.012668999843299389 -0.0007960000075399876 -0.03921499848365784
          0.01291900034993887 -0.0016919999616220593 -0.04026100039482117 0.013363000005483627 -0.004807999823242426 -0.03798000141978264
          0.013585999608039856 -0.00459699984639883 -0.03657300025224686 0.01300899963825941 -0.0010379999876022339 -0.04032900184392929
          0.01271899975836277 -0.0009219999774359167 -0.039788998663425446
          <InformationKey name="L2_NORM_RANGE" location="vtkDataArray" length="2">
            <Value index="0">
              0.036179695412
            </Value>
            <Value index="1">
              0.047434842841
            </Value>
          </InformationKey>
        </DataArray>
      </Points>
      <Verts>
        <DataArray type="Int64" Name="connectivity" format="ascii" RangeMin="1e+299" RangeMax="-1e+299">
        </DataArray>
        <DataArray type="Int64" Name="offsets" format="ascii" RangeMin="1e+299" RangeMax="-1e+299">
        </DataArray>
      </Verts>
      <Lines>
        <DataArray type="Int64" Name="connectivity" format="ascii" RangeMin="1e+299" RangeMax="-1e+299">
        </DataArray>
        <DataArray type="Int64" Name="offsets" format="ascii" RangeMin="1e+299" RangeMax="-1e+299">
        </DataArray>
      </Lines>
      <Strips>
        <DataArray type="Int64" Name="connectivity" format="ascii" RangeMin="1e+299" RangeMax="-1e+299">
        </DataArray>
        <DataArray type="Int64" Name="offsets" format="ascii" RangeMin="1e+299" RangeMax="-1e+299">
        </DataArray>
      </Strips>
      <Polys>
        <DataArray type="Int32" Name="connectivity" format="ascii" RangeMin="0" RangeMax="56">
          0 1 2 0 2 3
          4 1 0 3 5 0
          0 5 6 0 6 7
          4 0 7 1 8 2
          9 1 4 9 8 1
          2 10 11 10 2 8
          11 3 2 11 12 3
          3 13 5 14 3 12
          3 14 13 9 4 15
          7 16 4 17 15 4
          16 17 4 5 13 18
          18 6 5 7 6 16
          6 19 20 6 20 16
          19 6 21 21 6 18
          10 8 22 23 8 9
          22 8 23 24 23 9
          9 15 24 11 10 25
          10 26 25 27 26 10
          10 22 27 28 11 25
          11 14 12 11 28 14
          13 14 29 29 18 13
          14 28 30 31 29 14
          30 32 14 32 33 14
          34 14 33 31 14 34
          17 24 15 35 16 36
          16 35 37 17 16 37
          16 19 38 19 16 20
          16 38 36 26 39 17
          17 37 26 40 24 17
          40 17 39 21 18 29
          21 41 19 42 38 19
          42 19 43 43 19 41
          21 29 41 22 23 44
          22 45 27 40 45 22
          44 40 22 24 40 23
          44 23 40 37 46 25
          37 25 26 25 47 28
          47 25 46 26 27 39
          27 45 39 48 28 47
          30 28 48 31 41 29
          30 48 33 33 32 30
          41 31 49 49 31 50
          34 50 31 51 33 48
          51 52 33 34 33 52
          34 52 53 50 34 54
          34 53 54 37 35 46
          35 55 46 35 36 53
          52 55 35 53 52 35
          36 38 42 53 36 42
          45 40 39 49 43 41
          43 54 42 42 54 53
          50 54 43 49 50 43
          55 47 46 51 48 47
          56 47 55 51 47 56
          51 56 52 55 52 56
        </DataArray>
        <DataArray type="Int32" Name="offsets" format="ascii" RangeMin="3" RangeMax="330">
          3 6 9 12 15 18
          21 24 27 30 33 36
          39 42 45 48 51 54
          57 60 63 66 69 72
          75 78 81 84 87 90
          93 96 99 102 105 108
          111 114 117 120 123 126
          129 132 135 138 141 144
          147 150 153 156 159 162
          165 168 171 174 177 180
          183 186 189 192 195 198
          201 204 207 210 213 216
          219 222 225 228 231 234
          237 240 243 246 249 252
          255 258 261 264 267 270
          273 276 279 282 285 288
          291 294 297 300 303 306
          309 312 315 318 321 324
          327 330
        </DataArray>
      </Polys>
    </Piece>
  </PolyData>
</VTKFile>
