<?xml version="1.0"?>
<VTKFile type="PolyData" version="0.1" byte_order="LittleEndian" header_type="UInt32" compressor="vtkZLibDataCompressor">
  <PolyData>
    <Piece NumberOfPoints="133" NumberOfVerts="0" NumberOfLines="0" NumberOfStrips="0" NumberOfPolys="262">
      <PointData Normals="Normals">
        <DataArray type="Float32" Name="Normals" NumberOfComponents="3" format="ascii" RangeMin="0.9999993243718435" RangeMax="1.0000007839152407">
          -0.861270010471344 -0.46766701340675354 0.19875100255012512 -0.8386359810829163 -0.5445629954338074 -0.011881999671459198
          -0.7044370174407959 -0.7095549702644348 -0.017340000718832016 -0.8882840275764465 -0.4312500059604645 0.15803800523281097
          -0.878279983997345 -0.47812700271606445 -0.0042860000394284725 -0.7951800227165222 -0.2947790026664734 0.5299000144004822
          -0.851826012134552 -0.3064410090446472 0.42483600974082947 -0.7079960107803345 -0.6806409955024719 0.18833300471305847
          -0.8339200019836426 -0.5456969738006592 -0.08241599798202515 -0.8554520010948181 -0.5043929815292358 0.11743000149726868
          -0.7351660132408142 -0.38998299837112427 0.5544769763946533 -0.5578939914703369 -0.5604529976844788 -0.6120839715003967
          -0.7154330015182495 -0.37912699580192566 -0.5868719816207886 -0.21650099754333496 -0.896701991558075 -0.3860729932785034
          -0.25734400749206543 -0.965490996837616 0.04002400115132332 -0.8278089761734009 -0.33175399899482727 -0.45240598917007446
          -0.6797699928283691 -0.5287700295448303 0.5082470178604126 -0.7682380080223083 -0.14109200239181519 0.624422013759613
          -0.3924570083618164 0.03688099980354309 0.919031023979187 -0.3199479877948761 -0.34234800934791565 0.8834199905395508
          -0.5046979784965515 0.09809800237417221 0.8577039837837219 -0.05423000082373619 -0.9951170086860657 0.08246699720621109
          -0.07144699990749359 -0.9970409870147705 -0.028379999101161957 -0.2999640107154846 -0.8324229717254639 0.4659329950809479
          -0.7618340253829956 -0.4102959930896759 -0.5012639760971069 -0.8526149988174438 -0.4959309995174408 -0.16462300717830658
          -0.8612909913063049 -0.4768570065498352 0.1754550039768219 -0.2621229887008667 -0.20565399527549744 0.9428669810295105
          -0.742904007434845 -0.3501580059528351 0.5705100297927856 -0.06140400096774101 -0.43507900834083557 -0.8982959985733032
          -0.4370740056037903 -0.16067500412464142 -0.884958028793335 0.5188869833946228 -0.8537660241127014 -0.04288199916481972
          -0.4344770014286041 0.06929200142621994 -0.8980129957199097 -0.372981995344162 0.403999000787735 0.8352659940719604
          0.24722599983215332 -0.3143259882926941 0.916558027267456 -0.07931499928236008 0.38131698966026306 0.9210360050201416
          0.2826710045337677 0.20836099982261658 0.9363139867782593 -0.2955479919910431 0.5788829922676086 0.7599639892578125
          0.15627600252628326 -0.7182049751281738 0.678056001663208 0.19286200404167175 0.6922209858894348 0.695438027381897
          -0.33215999603271484 0.6390950083732605 0.6937059760093689 0.5026659965515137 -0.8631389737129211 -0.048151999711990356
          0.2423190027475357 -0.9418399930000305 0.2328519970178604 0.547435998916626 -0.8367480039596558 0.01285799965262413
          -0.21780799329280853 -0.27146100997924805 -0.9374799728393555 -0.544730007648468 -0.5471940040588379 -0.6354910135269165
          -0.801065981388092 -0.5298839807510376 -0.2784149944782257 -0.8069260120391846 -0.560617983341217 -0.18595300614833832
          -0.9296050071716309 -0.35064300894737244 0.11350800096988678 0.3748979866504669 0.10148900002241135 0.9214940071105957
          0.05709800124168396 -0.16753600537776947 0.9842110276222229 -0.1901639997959137 -0.21587400138378143 0.9577239751815796
          -0.7677739858627319 -0.1164029985666275 0.630059003829956 -0.9709439873695374 0.18105599284172058 0.156482994556427
          0.19376400113105774 -0.07991299778223038 -0.977787971496582 0.5035579800605774 -0.4521690011024475 -0.7361879944801331
          -0.09484200179576874 0.18734699487686157 -0.9777039885520935 0.8769109845161438 -0.39289799332618713 -0.27687200903892517
          0.9110310077667236 -0.3787679970264435 0.16296300292015076 0.8348219990730286 -0.5486890077590942 0.04485800117254257
          -0.1980540007352829 0.7134209871292114 -0.6721649765968323 0.15842199325561523 0.6533809900283813 -0.7402669787406921
          0.4622969925403595 -0.735243022441864 0.4956820011138916 0.8351110219955444 0.07657899707555771 0.5447250008583069
          0.8370890021324158 -0.4240320026874542 0.34565699100494385 0.2830069959163666 0.8042349815368652 0.5226020216941833
          0.7034350037574768 0.5495179891586304 0.4507870078086853 0.4391250014305115 0.8966140151023865 -0.057022999972105026
          0.6257550120353699 0.7756789922714233 0.08217400312423706 0.9281579852104187 0.3205510079860687 0.18912799656391144
          0.8753740191459656 -0.4664649963378906 -0.12701299786567688 -0.0014819999923929572 -0.3166239857673645 -0.9485499858856201
          0.664268970489502 0.14246399700641632 -0.7337920069694519 0.29542800784111023 -0.1279589980840683 -0.9467570185661316
          -0.3048509955406189 -0.5171740055084229 -0.7997480034828186 -0.6864929795265198 -0.48613598942756653 -0.5407389998435974
          -0.8630149960517883 -0.41228100657463074 -0.2919420003890991 -0.9680320024490356 0.217849001288414 -0.12432000041007996
          0.6979140043258667 0.06522999703884125 0.7132049798965454 0.33827701210975647 0.01657699979841709 0.940900981426239
          -0.09696800261735916 0.2984350025653839 0.949491024017334 -0.5134900212287903 0.15312400460243225 0.8443229794502258
          -0.9138870239257812 0.3973410129547119 0.08325199782848358 -0.8081349730491638 0.5016250014305115 0.30869200825691223
          -0.5380560159683228 0.8381239771842957 -0.08968900144100189 0.8675370216369629 0.0547109991312027 -0.4943549931049347
          0.5876280069351196 0.5210019946098328 -0.6190720200538635 0.30101799964904785 0.9080010056495667 -0.2914150059223175
          0.9909160137176514 0.12038999795913696 0.05992300063371658 0.9993209838867188 -0.03166700154542923 -0.018827000632882118
          0.6639500260353088 0.7088040113449097 -0.23825900256633759 0.9767159819602966 0.2141290009021759 -0.01322999969124794
          0.7035890221595764 0.7102109789848328 0.023731999099254608 0.7489650249481201 0.6603440046310425 -0.05475199967622757
          0.9821100234985352 0.14079900085926056 0.12504200637340546 0.8769230246543884 0.02167399972677231 -0.4801430106163025
          0.3884130120277405 -0.25909799337387085 -0.8843100070953369 -0.04158100113272667 -0.3615359961986542 -0.9314299821853638
          -0.6361969709396362 -0.27543899416923523 -0.7206850051879883 -0.6100199818611145 -0.4768170118331909 -0.6328669786453247
          -0.7695760130882263 -0.3826819956302643 -0.5111820101737976 -0.7942219972610474 0.2147500067949295 -0.5684139728546143
          -0.701885998249054 0.6635230183601379 -0.2590230107307434 0.8696519732475281 0.1972610056400299 0.4525420069694519
          0.6588749885559082 0.6472939848899841 0.38326698541641235 0.3157620131969452 0.5732259750366211 0.7561129927635193
          -0.47018998861312866 0.8335049748420715 0.2901560068130493 -0.08968300372362137 0.8575109839439392 0.5065879821777344
          -0.5244070291519165 0.8319770097732544 -0.1811400055885315 -0.28824499249458313 0.9552549719810486 0.06635899841785431
          0.09546700119972229 0.9953100085258484 -0.015641000121831894 -0.31653499603271484 0.9444270133972168 0.08867699652910233
          -0.3497389853000641 0.924373984336853 -0.15236400067806244 -0.09639199823141098 0.9922490119934082 -0.07842099666595459
          0.7919899821281433 0.6103579998016357 0.014662000350654125 0.831591010093689 0.5290319919586182 -0.16906499862670898
          0.7640870213508606 0.06125799939036369 -0.6421989798545837 0.47131800651550293 -0.059147998690605164 -0.8799780011177063
          -0.3400909900665283 0.10978099703788757 -0.9339630007743835 0.1881749927997589 -0.03486299887299538 -0.9815170168876648
          -0.50347900390625 0.49970099329948425 -0.7048460245132446 0.36928901076316833 0.910601019859314 0.18555499613285065
          0.43171000480651855 0.9005069732666016 0.052097998559474945 0.17193299531936646 0.9269189834594727 0.33355799317359924
          -0.06151700019836426 0.9976800084114075 0.029154999181628227 -0.25224798917770386 0.8544939756393433 -0.4541049897670746
          0.13686800003051758 0.9846540093421936 -0.10827600210905075 0.06860200315713882 0.960657000541687 -0.2691330015659332
          0.5651450157165527 0.4681070148944855 -0.679328978061676 0.4147379994392395 0.8229439854621887 -0.3882719874382019
          0.2992430031299591 0.4030880033969879 -0.8648549914360046 -0.02326500043272972 0.38897401094436646 -0.9209550023078918
          0.1576720029115677 0.7689350247383118 -0.619579017162323
          <InformationKey name="L2_NORM_RANGE" location="vtkDataArray" length="2">
            <Value index="0">
              0.99999932437
            </Value>
            <Value index="1">
              1.0000007839
            </Value>
          </InformationKey>
        </DataArray>
      </PointData>
      <CellData>
      </CellData>
      <Points>
        <DataArray type="Float32" Name="Points" NumberOfComponents="3" format="ascii" RangeMin="0.10044328869541212" RangeMax="0.1482647305456587">
          0.015985000878572464 -0.1417980045080185 0.0037539999466389418 0.017121000215411186 -0.14495299756526947 0.0004529999860096723
          0.017779000103473663 -0.14572100341320038 0.00038899999344721437 0.01684500090777874 -0.14416299760341644 0.003942999988794327
          0.015065999701619148 -0.14036299288272858 0.001724999980069697 0.017396999523043633 -0.1431570053100586 0.007393000181764364
          0.016304999589920044 -0.1412229984998703 0.006029999814927578 0.01781800016760826 -0.1452530026435852 0.0050409999676048756
          0.01358800008893013 -0.1383959949016571 0.0015160000184550881 0.007036000024527311 -0.12818099558353424 0.0030580000020563602
          0.008507000282406807 -0.1286730021238327 0.005096999928355217 0.017952000722289085 -0.14567899703979492 -0.00040499999886378646
          0.016429999843239784 -0.14336000382900238 -0.0005740000051446259 0.019801000133156776 -0.14666800200939178 -0.0005740000051446259
          0.01948300004005432 -0.14688000082969666 0.0012130000395700336 0.015812000259757042 -0.1416649967432022 -0.0004400000034365803
          0.018668999895453453 -0.1453319936990738 0.007706999778747559 0.016824999824166298 -0.14049899578094482 0.007457000203430653
          0.018296999856829643 -0.13907699286937714 0.008740999735891819 0.020041000097990036 -0.14516699314117432 0.00880999956279993
          0.016467999666929245 -0.13782599568367004 0.007459000218659639 0.019664999097585678 -0.14630399644374847 0.00405400013551116
          0.02011599950492382 -0.1467290073633194 0.006645999848842621 0.0201990008354187 -0.14640699326992035 0.008055999875068665
          0.012632000260055065 -0.13617800176143646 0.0004920000210404396 0.005501000210642815 -0.12559400498867035 0.0023849999997764826
          0.0027360001113265753 -0.11951900273561478 0.0025470000691711903 0.0030300000216811895 -0.11312200129032135 0.006876999977976084
          -0.001184999942779541 -0.11064799875020981 0.005109000019729137 0.022022999823093414 -0.1462710052728653 -0.0010319999419152737
          0.0168869998306036 -0.14050699770450592 -0.0017140000127255917 0.02261199988424778 -0.14648699760437012 0.000155999994603917
          0.01654299907386303 -0.13878099620342255 -0.0015190000412985682 0.01785999909043312 -0.13854199647903442 0.008407000452280045
          0.023295000195503235 -0.14375799894332886 0.009506000205874443 0.020065000280737877 -0.13853999972343445 0.009158000349998474
          0.023447999730706215 -0.14180199801921844 0.00964600034058094 0.018585000187158585 -0.13755600154399872 0.008170000277459621
          0.0212629996240139 -0.14626699686050415 0.008138000033795834 0.01823499985039234 -0.1369210034608841 0.007155000232160091
          0.017791999503970146 -0.1375270038843155 0.0076350001618266106 0.02223300002515316 -0.14566099643707275 0.0038250000216066837
          0.021314000710844994 -0.14653900265693665 0.007379999849945307 0.022515999153256416 -0.14615699648857117 0.007046999875456095
          0.010180000215768814 -0.1241530030965805 -0.003108999924734235 0.004253999795764685 -0.11889000236988068 -0.002662000013515353
          0.002816000021994114 -0.1193389967083931 -0.00009999999747378752 -0.00016799999866634607 -0.1148110032081604 -0.001487000030465424
          -0.002363000065088272 -0.11106500029563904 0.0021909999195486307 0.007965999655425549 -0.11483299732208252 0.007327000144869089
          0.004523999989032745 -0.11122000217437744 0.007528999820351601 0.002351999981328845 -0.1078139990568161 0.008617999963462353
          -0.0014909999445080757 -0.10638000071048737 0.007048000115901232 -0.0027580000460147858 -0.10566200315952301 0.004102999810129404
          0.022777000442147255 -0.14139199256896973 -0.002730000065639615 0.023020999506115913 -0.14481300115585327 -0.0016919999616220593
          0.019481999799609184 -0.1386840045452118 -0.0025080000050365925 0.02414499968290329 -0.14425399899482727 -0.0008730000117793679
          0.02426600083708763 -0.14400799572467804 0.0015369999455288053 0.023057999089360237 -0.14478600025177002 0.003759999992325902
          0.018386000767350197 -0.13818399608135223 -0.002090000081807375 0.018564000725746155 -0.1376499980688095 -0.0009459999855607748
          0.0231929998844862 -0.14516200125217438 0.00850099977105856 0.024375999346375465 -0.14182600378990173 0.008887000381946564
          0.023924000561237335 -0.1442520022392273 0.008763999678194523 0.02010500058531761 -0.1372310072183609 0.00823500007390976
          0.02371699921786785 -0.14052900671958923 0.008806999772787094 0.02097499929368496 -0.13764099776744843 0.005969000048935413
          0.019345000386238098 -0.13687700033187866 0.005588000174611807 0.009496999904513359 -0.11520899832248688 0.004433999769389629
          0.024397000670433044 -0.14410699903964996 0.006184999831020832 0.007571999914944172 -0.11758600175380707 -0.004486999940127134
          0.011378999799489975 -0.1237960010766983 -0.0030410001054406166 0.008549000136554241 -0.11717899888753891 -0.004410000052303076
          0.00455200020223856 -0.11303599923849106 -0.00660899979993701 0.00026500000967644155 -0.11471299827098846 -0.002979000099003315
          -0.00101500004529953 -0.11315499991178513 -0.001905999961309135 -0.003140999935567379 -0.1063309982419014 -0.0010519999777898192
          0.006756999995559454 -0.11063399910926819 0.007280000019818544 0.005816000048071146 -0.10621999949216843 0.008185000158846378
          0.001474000047892332 -0.1019349992275238 0.00867099966853857 -0.00015100000018719584 -0.10339300334453583 0.008390000090003014
          -0.00215000007301569 -0.10419800132513046 0.005810000002384186 -0.0008280000183731318 -0.10193300247192383 0.007135000079870224
          0.003198999911546707 -0.10225299745798111 -0.0008789999992586672 0.02438800036907196 -0.1419290006160736 -0.0015310000162571669
          0.0232900008559227 -0.13950300216674805 -0.002022000029683113 0.020721999928355217 -0.13777799904346466 -0.001521000056527555
          0.024695999920368195 -0.14201700687408447 0.0009399999980814755 0.024078000336885452 -0.14193099737167358 0.0036140000447630882
          0.019345000386238098 -0.13714900612831116 0.0009410000056959689 0.024748999625444412 -0.14162999391555786 0.006144999992102385
          0.023128999397158623 -0.13905100524425507 0.00622900016605854 0.023211000487208366 -0.13981199264526367 0.0034729999024420977
          0.008568000048398972 -0.10694000124931335 0.00004400000034365803 0.008948000147938728 -0.11122000217437744 -0.004395999945700169
          0.007926000282168388 -0.1153549998998642 -0.005005999933928251 0.002937000012025237 -0.10878700017929077 -0.009368999861180782
          -0.000019999999494757503 -0.10756699740886688 -0.008050999604165554 0.0001289999927394092 -0.11271999776363373 -0.003851999994367361
          -0.0012880000285804272 -0.11026299744844437 -0.0050760000012815 -0.0008219999726861715 -0.1047390028834343 -0.0067900000140070915
          -0.0005540000274777412 -0.1032629981637001 -0.005843999795615673 0.007313000038266182 -0.10417599976062775 0.0068870000541210175
          0.006039999891072512 -0.10187900066375732 0.00685499981045723 0.003944000229239464 -0.10157900303602219 0.008375000208616257
          0.0007890000124461949 -0.10073799639940262 0.007548999972641468 0.0019030000548809767 -0.10043500363826752 0.0074880002066493034
          0.0012359999818727374 -0.10220900177955627 -0.006899999920278788 0.0039079999551177025 -0.10096199810504913 -0.006541000213474035
          0.005748999770730734 -0.10068999975919724 -0.003734000027179718 0.004526999779045582 -0.10114800184965134 -0.004219000227749348
          0.001614999957382679 -0.10046099871397018 0.006453999783843756 0.0036059999838471413 -0.10026499629020691 0.004772999789565802
          0.02368300035595894 -0.13970300555229187 0.0007510000141337514 0.007805999834090471 -0.10212799906730652 -0.005022999830543995
          0.006972000002861023 -0.10544899851083755 -0.007903000339865685 0.0053530000150203705 -0.10691200196743011 -0.009019000455737114
          0.002128999913111329 -0.10640600323677063 -0.009569000452756882 0.003918000031262636 -0.10727900266647339 -0.009424000047147274
          0.002391000045463443 -0.1022149994969368 -0.008005999960005283 0.004453999921679497 -0.100552998483181 0.005892000161111355
          0.004834999796003103 -0.10048700124025345 0.0027699999045580626 0.00291600008495152 -0.10029900074005127 0.0072280000895261765
          0.002701000077649951 -0.10025999695062637 0.006688000168651342 0.003406000090762973 -0.10116399824619293 -0.007453999947756529
          0.005745999980717897 -0.10080599784851074 -0.004993000067770481 0.004284000024199486 -0.10092099756002426 -0.006926999893039465
          0.006000000052154064 -0.10227199643850327 -0.00803999975323677 0.005481999833136797 -0.10142800211906433 -0.0072119999676942825
          0.004974000155925751 -0.10245700180530548 -0.008733999915421009 0.00394799979403615 -0.10280299931764603 -0.009025000035762787
          0.0046179997734725475 -0.10152000188827515 -0.007946999743580818
          <InformationKey name="L2_NORM_RANGE" location="vtkDataArray" length="2">
            <Value index="0">
              0.1004432887
            </Value>
            <Value index="1">
              0.14826473055
            </Value>
          </InformationKey>
        </DataArray>
      </Points>
      <Verts>
        <DataArray type="Int64" Name="connectivity" format="ascii" RangeMin="1e+299" RangeMax="-1e+299">
        </DataArray>
        <DataArray type="Int64" Name="offsets" format="ascii" RangeMin="1e+299" RangeMax="-1e+299">
        </DataArray>
      </Verts>
      <Lines>
        <DataArray type="Int64" Name="connectivity" format="ascii" RangeMin="1e+299" RangeMax="-1e+299">
        </DataArray>
        <DataArray type="Int64" Name="offsets" format="ascii" RangeMin="1e+299" RangeMax="-1e+299">
        </DataArray>
      </Lines>
      <Strips>
        <DataArray type="Int64" Name="connectivity" format="ascii" RangeMin="1e+299" RangeMax="-1e+299">
        </DataArray>
        <DataArray type="Int64" Name="offsets" format="ascii" RangeMin="1e+299" RangeMax="-1e+299">
        </DataArray>
      </Strips>
      <Polys>
        <DataArray type="Int32" Name="connectivity" format="ascii" RangeMin="0" RangeMax="132">
          0 1 2 3 0 2
          1 0 4 5 6 0
          7 0 3 8 4 0
          9 8 0 10 9 0
          0 6 10 5 0 7
          1 11 2 12 11 1
          1 4 12 2 13 14
          2 11 13 2 7 3
          7 2 14 4 15 12
          15 4 8 7 16 5
          5 17 6 18 17 5
          5 19 18 5 16 19
          10 6 20 6 17 20
          14 21 7 21 22 7
          7 22 23 23 16 7
          24 8 9 8 24 15
          25 24 9 10 25 9
          10 26 25 10 20 27
          26 10 28 28 10 27
          29 11 12 29 13 11
          29 12 30 30 12 15
          14 13 31 13 29 31
          31 21 14 32 30 15
          32 15 24 16 23 19
          17 18 20 18 33 20
          18 19 34 35 18 36
          18 34 36 35 37 18
          33 18 37 23 38 19
          38 34 19 20 39 27
          20 40 39 20 33 40
          21 31 41 22 21 41
          22 42 23 43 22 41
          43 42 22 23 42 38
          24 44 32 44 24 25
          44 25 45 45 25 46
          46 25 26 47 46 26
          26 48 47 28 48 26
          49 50 27 51 28 27
          50 51 27 27 39 49
          51 52 28 48 28 53
          53 28 52 29 54 55
          54 29 56 29 30 56
          31 29 55 32 56 30
          57 58 31 59 31 58
          59 41 31 31 55 57
          32 60 56 61 32 44
          32 61 60 33 37 40
          34 38 62 34 63 36
          63 34 64 34 62 64
          36 65 35 35 65 37
          63 66 36 66 65 36
          37 65 39 40 37 39
          42 62 38 39 67 68
          39 68 69 39 69 49
          65 67 39 59 70 41
          43 41 70 62 42 43
          43 70 64 62 43 64
          44 45 71 44 72 61
          44 73 72 44 71 73
          45 74 71 45 75 74
          45 46 47 75 45 47
          75 47 76 76 47 48
          76 48 77 53 77 48
          50 49 78 49 69 78
          50 78 79 51 50 79
          51 79 80 81 52 51
          81 51 80 52 82 53
          83 52 81 83 82 52
          84 77 53 84 53 82
          55 54 85 86 54 56
          86 85 54 55 85 57
          56 60 87 56 87 86
          57 88 58 88 57 85
          89 58 88 58 89 59
          70 59 89 87 60 61
          90 87 61 72 90 61
          63 64 91 91 66 63
          91 64 70 65 92 67
          92 65 66 91 92 66
          93 68 67 92 93 67
          93 87 68 68 87 90
          68 90 69 94 78 69
          95 94 69 72 95 69
          69 90 72 91 70 89
          71 74 96 71 96 73
          95 72 73 73 96 95
          97 74 98 75 99 74
          99 100 74 97 96 74
          100 98 74 76 99 75
          76 100 99 76 77 100
          101 100 77 84 102 77
          101 77 102 103 79 78
          103 78 94 79 104 105
          104 79 103 80 79 105
          81 80 106 107 106 80
          105 107 80 106 83 81
          84 82 83 84 83 106
          108 84 109 84 110 111
          84 108 102 84 112 113
          84 106 112 111 109 84
          113 110 84 85 114 88
          114 85 86 114 86 87
          87 93 114 89 88 93
          88 114 93 93 91 89
          91 93 92 94 115 103
          95 115 94 116 115 95
          117 116 95 95 96 117
          97 117 96 118 97 98
          117 97 119 119 97 118
          98 100 101 118 98 101
          120 101 102 120 118 101
          102 108 120 115 104 103
          121 105 104 121 104 122
          122 104 110 115 110 104
          107 105 123 105 121 123
          124 106 107 124 112 106
          124 107 123 125 108 109
          120 108 125 126 109 111
          109 127 125 109 126 127
          126 111 110 122 110 113
          115 126 110 124 113 112
          113 121 122 113 124 121
          115 116 128 129 115 128
          115 129 126 117 128 116
          128 117 130 119 131 117
          130 117 131 118 120 131
          131 119 118 125 131 120
          124 123 121 125 132 131
          132 125 127 129 127 126
          129 132 127 128 132 129
          132 128 130 131 132 130
        </DataArray>
        <DataArray type="Int32" Name="offsets" format="ascii" RangeMin="3" RangeMax="786">
          3 6 9 12 15 18
          21 24 27 30 33 36
          39 42 45 48 51 54
          57 60 63 66 69 72
          75 78 81 84 87 90
          93 96 99 102 105 108
          111 114 117 120 123 126
          129 132 135 138 141 144
          147 150 153 156 159 162
          165 168 171 174 177 180
          183 186 189 192 195 198
          201 204 207 210 213 216
          219 222 225 228 231 234
          237 240 243 246 249 252
          255 258 261 264 267 270
          273 276 279 282 285 288
          291 294 297 300 303 306
          309 312 315 318 321 324
          327 330 333 336 339 342
          345 348 351 354 357 360
          363 366 369 372 375 378
          381 384 387 390 393 396
          399 402 405 408 411 414
          417 420 423 426 429 432
          435 438 441 444 447 450
          453 456 459 462 465 468
          471 474 477 480 483 486
          489 492 495 498 501 504
          507 510 513 516 519 522
          525 528 531 534 537 540
          543 546 549 552 555 558
          561 564 567 570 573 576
          579 582 585 588 591 594
          597 600 603 606 609 612
          615 618 621 624 627 630
          633 636 639 642 645 648
          651 654 657 660 663 666
          669 672 675 678 681 684
          687 690 693 696 699 702
          705 708 711 714 717 720
          723 726 729 732 735 738
          741 744 747 750 753 756
          759 762 765 768 771 774
          777 780 783 786
        </DataArray>
      </Polys>
    </Piece>
  </PolyData>
</VTKFile>
