<?xml version="1.0"?>
<VTKFile type="PolyData" version="0.1" byte_order="LittleEndian" header_type="UInt32" compressor="vtkZLibDataCompressor">
  <PolyData>
    <Piece NumberOfPoints="166" NumberOfVerts="0" NumberOfLines="0" NumberOfStrips="0" NumberOfPolys="328">
      <PointData Normals="Normals">
        <DataArray type="Float32" Name="Normals" NumberOfComponents="3" format="ascii" RangeMin="0.9999993175735308" RangeMax="1.0000007495923">
          -0.17001700401306152 -0.9807299971580505 -0.09624999761581421 0.3345029950141907 -0.9341440200805664 -0.12443199753761292
          0.01990400068461895 -0.9053189754486084 0.4242660105228424 -0.6447970271110535 -0.7641389966011047 -0.018120000138878822
          -0.44933900237083435 -0.8720110058784485 0.1941400021314621 0.31926798820495605 -0.9422510266304016 -0.10114999860525131
          -0.6101940274238586 -0.7846930027008057 -0.10918000340461731 -0.2188429981470108 -0.9598950147628784 -0.17523999512195587
          0.884024977684021 -0.460301011800766 -0.08137699961662292 0.7736679911613464 -0.6334729790687561 0.012241999618709087
          -0.38687101006507874 -0.559050977230072 0.7333440184593201 -0.38736799359321594 -0.727878987789154 0.5658079981803894
          0.4660789966583252 -0.6209369897842407 0.6302440166473389 -0.8512759804725647 -0.5051609873771667 0.14191800355911255
          -0.8037620186805725 -0.5545200109481812 -0.2155809998512268 -0.8321340084075928 -0.553704023361206 -0.031077999621629715
          0.23831400275230408 -0.9419990181922913 -0.23631399869918823 0.7447469830513 -0.6655139923095703 -0.04942899942398071
          -0.6083469986915588 -0.7620180249214172 -0.22190499305725098 -0.775763988494873 -0.6293709874153137 0.04563099890947342
          -0.33539700508117676 -0.7959510087966919 -0.5039550065994263 0.9811080098152161 0.09611000120639801 -0.16790099442005157
          0.8918420076370239 0.4519209861755371 -0.01963699981570244 0.9996880292892456 0.021832000464200974 -0.012122999876737595
          0.9498270153999329 -0.03365200012922287 0.3109610080718994 -0.6297950148582458 -0.331369012594223 0.7025330066680908
          0.4236679971218109 -0.42155900597572327 0.8017439842224121 0.3917199969291687 -0.09463100135326385 0.9152050018310547
          -0.07327499985694885 0.06573600322008133 0.9951429963111877 -0.3247990012168884 0.10227400064468384 0.9402369856834412
          -0.7357019782066345 -0.5857999920845032 0.33997300267219543 -0.7401540279388428 -0.6666769981384277 -0.08783599734306335
          -0.775530993938446 -0.6284989714622498 0.059498000890016556 0.13015300035476685 -0.7194439768791199 -0.6822460293769836
          0.6276050209999084 -0.48271599411964417 -0.610817015171051 -0.6903250217437744 -0.54374098777771 -0.47728100419044495
          -0.7764089703559875 -0.6302120089530945 0.004695999901741743 -0.20087599754333496 -0.2860110104084015 -0.9369350075721741
          0.8435329794883728 0.535631000995636 -0.039381999522447586 0.7625560164451599 0.6439499855041504 0.06194600090384483
          0.5247160196304321 0.8435019850730896 0.11478900164365768 0.5677120089530945 0.8230190277099609 -0.018526000902056694
          0.8541929721832275 -0.005357999820262194 -0.519927978515625 0.8076249957084656 0.36525100469589233 -0.46296200156211853
          0.7798460125923157 0.4820150136947632 0.3993760049343109 -0.4377959966659546 -0.15939199924468994 0.8848329782485962
          -0.4650390148162842 0.20245899260044098 0.8618289828300476 0.42271900177001953 0.642549991607666 0.6390920281410217
          0.03366199880838394 0.8697440028190613 0.49235400557518005 -0.1116970032453537 0.6166260242462158 0.7792919874191284
          -0.1632779985666275 -0.4625740051269531 0.8714159727096558 -0.5809339880943298 -0.7573390007019043 0.2982510030269623
          -0.5790479779243469 -0.6933240294456482 -0.428957998752594 -0.7768059968948364 -0.5243849754333496 -0.348702996969223
          0.2199539989233017 0.014929999597370625 -0.9753959774971008 -0.6595320105552673 -0.24614399671554565 -0.7102329730987549
          -0.8437830209732056 -0.4236049950122833 -0.3295289874076843 -0.41313299536705017 0.04809800162911415 -0.9093989729881287
          0.658840000629425 0.6284859776496887 -0.4134419858455658 0.41788598895072937 0.8374149799346924 -0.35228800773620605
          0.35773101449012756 0.9335309863090515 0.023398999124765396 0.37960800528526306 0.8973940014839172 0.22490300238132477
          0.34867799282073975 0.443695992231369 -0.825564980506897 0.46757298707962036 0.33086198568344116 0.8196979761123657
          -0.20261900126934052 -0.7395510077476501 0.6418799757957458 0.31551501154899597 -0.08282999694347382 0.9452990293502808
          0.4367600083351135 -0.032621998339891434 0.8989859819412231 -0.2817060053348541 -0.396248996257782 -0.8738579750061035
          -0.23407499492168427 -0.12400499731302261 -0.964277982711792 -0.4735400080680847 -0.8534960150718689 -0.21749499440193176
          -0.474494993686676 -0.34788501262664795 -0.8085970282554626 -0.4181689918041229 -0.33880600333213806 -0.8428199887275696
          -0.7783960103988647 -0.2816169857978821 -0.5610629916191101 -0.6382319927215576 -0.5865300297737122 -0.4986410140991211
          -0.08548600226640701 0.4597890079021454 -0.883903980255127 -0.5863239765167236 -0.17915000021457672 -0.7900180220603943
          -0.18190599977970123 0.4142580032348633 -0.8917959928512573 0.05687100067734718 0.8744819760322571 -0.4817129969596863
          0.48663800954818726 0.8656989932060242 -0.11725299805402756 0.19400399923324585 0.8640300035476685 -0.46455898880958557
          0.6478949785232544 0.7445070147514343 0.16106200218200684 0.6741560101509094 0.516219973564148 0.528232991695404
          -0.4259850084781647 -0.8469700217247009 0.31808599829673767 -0.39978599548339844 -0.6340399980545044 0.6619399785995483
          0.04424099996685982 -0.4844689965248108 0.8736889958381653 0.41974300146102905 -0.22399400174617767 0.8795700073242188
          0.792074978351593 0.5291979908943176 0.3042469918727875 0.8636850118637085 0.26947999000549316 0.4259450137615204
          0.05254799872636795 0.08515000343322754 -0.9949809908866882 0.02982800081372261 -0.046870000660419464 -0.9984560012817383
          0.35146498680114746 0.595425009727478 -0.7224550247192383 0.32923999428749084 0.3537909984588623 -0.875461995601654
          -0.6354659795761108 -0.6926299929618835 -0.3412419855594635 -0.5331659913063049 -0.54093998670578 -0.650475025177002
          -0.7699180245399475 -0.6302210092544556 -0.10023999959230423 -0.6147260069847107 -0.7106469869613647 0.3421880006790161
          -0.5028039813041687 -0.3050589859485626 -0.8087810277938843 -0.4834490120410919 0.2721540033817291 -0.8319910168647766
          -0.7598099708557129 0.4176900088787079 -0.4982210099697113 -0.6895710229873657 -0.247981995344162 -0.6804389953613281
          0.6905069947242737 0.7144439816474915 -0.1130020022392273 -0.46314701437950134 0.04478500038385391 0.8851490020751953
          -0.7907249927520752 -0.022539999336004257 0.6117569804191589 0.12954099476337433 -0.22732000052928925 0.9651659727096558
          0.4062980115413666 -0.16661399602890015 0.8984220027923584 0.5084540247917175 -0.2647950053215027 0.8193650245666504
          0.8303710222244263 0.5510330200195312 -0.08273900300264359 0.8492770195007324 0.47770100831985474 0.2247920036315918
          0.748170018196106 0.660053014755249 -0.0676250010728836 0.6988970041275024 0.12946900725364685 0.7034069895744324
          0.25397399067878723 0.4684869945049286 -0.8461779952049255 0.5968300104141235 0.45390400290489197 -0.6616380214691162
          -0.5687050223350525 0.6031969785690308 -0.5592210292816162 -0.7653239965438843 -0.46432599425315857 -0.44573599100112915
          -0.5768700242042542 0.815775990486145 0.04160499945282936 -0.914792001247406 0.08656000345945358 -0.39454200863838196
          -0.9125819802284241 -0.09979899972677231 0.3965269923210144 -0.7182679772377014 0.6709849834442139 0.18403799831867218
          -0.7517179846763611 0.2605459988117218 0.6058340072631836 -0.6668679714202881 0.44808700680732727 0.5954030156135559
          -0.6567170023918152 0.7334250211715698 0.17552900314331055 -0.25860199332237244 0.9428439736366272 0.21016600728034973
          -0.7998629808425903 0.52811199426651 0.28516000509262085 -0.03051000088453293 0.2663840055465698 0.9633839726448059
          -0.4075939953327179 0.5352129936218262 0.7398750185966492 -0.7257930040359497 0.5950400233268738 0.34518301486968994
          -0.6519479751586914 0.7524809837341309 0.09346800297498703 0.34317898750305176 0.09863399714231491 0.9340770244598389
          0.22219300270080566 0.30829301476478577 0.9249789714813232 0.5158759951591492 0.4692060053348541 0.7167410254478455
          0.634552001953125 0.6636809706687927 -0.3960700035095215 0.5638989806175232 0.7324939966201782 0.3814069926738739
          -0.08741199970245361 0.9908199906349182 -0.10312400013208389 -0.661309003829956 0.6757050156593323 0.32572099566459656
          -0.4649919867515564 0.8800430297851562 0.09647099673748016 -0.49950000643730164 0.8553850054740906 -0.13717299699783325
          -0.8412799835205078 0.38190698623657227 0.3826169967651367 -0.10006999969482422 0.9803580045700073 0.1699559986591339
          -0.29078298807144165 0.8799690008163452 0.37563401460647583 -0.18753699958324432 0.9462170004844666 0.26363301277160645
          -0.37849000096321106 0.8759980201721191 0.29895201325416565 -0.37703800201416016 0.9217849969863892 0.09030400216579437
          -0.7495959997177124 0.6120730042457581 0.25193798542022705 -0.22982899844646454 0.7197539806365967 0.6550819873809814
          -0.8285300135612488 0.5587450265884399 -0.03663700073957443 -0.6304330229759216 0.775816023349762 -0.025779999792575836
          -0.5773860216140747 0.8164299726486206 0.008283000439405441 -0.2808479964733124 0.8700889945030212 0.4050540030002594
          -0.943647027015686 0.29742199182510376 0.14515699446201324 -0.951807975769043 0.30168798565864563 0.05518399924039841
          -0.9237480163574219 0.373742014169693 0.08370999991893768 -0.8937960267066956 0.02034500055015087 0.44801101088523865
          -0.986240029335022 0.10651099681854248 0.12643800675868988 -0.9023740291595459 0.2791529893875122 0.32832100987434387
          -0.9662209749221802 0.16798000037670135 0.19544799625873566 -0.2110469937324524 0.976934015750885 -0.03255299851298332
          -0.5146390199661255 0.8523370027542114 0.09309899806976318 -0.4860050082206726 0.8677390217781067 0.10406199842691422
          -0.14335699379444122 0.9872639775276184 -0.06898599863052368 -0.8869370222091675 0.4256640076637268 -0.17930999398231506
          -0.8168519735336304 0.5583080053329468 0.1450680047273636 -0.7105709910392761 0.6851680278778076 -0.1601029932498932
          -0.8284209966659546 0.3515920042991638 0.43600600957870483 -0.6426439881324768 0.6589609980583191 0.39087000489234924
          -0.9300550222396851 0.2615799903869629 0.25801700353622437 -0.6364420056343079 0.767524003982544 0.07647000253200531
          <InformationKey name="L2_NORM_RANGE" location="vtkDataArray" length="2">
            <Value index="0">
              0.99999931757
            </Value>
            <Value index="1">
              1.0000007496
            </Value>
          </InformationKey>
        </DataArray>
      </PointData>
      <CellData>
      </CellData>
      <Points>
        <DataArray type="Float32" Name="Points" NumberOfComponents="3" format="ascii" RangeMin="0.1461910631607538" RangeMax="0.17418883610572314">
          0.0431860014796257 -0.1684419959783554 -0.007579999975860119 0.04386100172996521 -0.16840699315071106 -0.0075530000030994415
          0.043568000197410583 -0.16834799945354462 -0.006173000205308199 0.04240800067782402 -0.16810299456119537 -0.007511000148952007
          0.042764998972415924 -0.16828499734401703 -0.006732999812811613 0.043740998953580856 -0.16774199903011322 -0.010286999866366386
          0.0419670008122921 -0.16737699508666992 -0.01003399956971407 0.04290499910712242 -0.16770100593566895 -0.011203000321984291
          0.04598499834537506 -0.16618600487709045 -0.00979899987578392 0.04639900103211403 -0.16717499494552612 -0.006632000207901001
          0.03994499891996384 -0.16527099907398224 -0.005239999853074551 0.04279699921607971 -0.1680459976196289 -0.006157000083476305
          0.045844998210668564 -0.16727900505065918 -0.005537999793887138 0.03932600095868111 -0.16468900442123413 -0.005594999995082617
          0.039872001856565475 -0.16533899307250977 -0.008364999666810036 0.0410350002348423 -0.16629399359226227 -0.00992400012910366
          0.04429800063371658 -0.16742299497127533 -0.013358999975025654 0.04601600021123886 -0.1666409969329834 -0.011843999847769737
          0.04225299879908562 -0.16717199981212616 -0.012168999761343002 0.04031199961900711 -0.16551299393177032 -0.010645000264048576
          0.043042998760938644 -0.167153000831604 -0.013803999871015549 0.04670500010251999 -0.16480199992656708 -0.007600999902933836
          0.045885998755693436 -0.16383999586105347 -0.009339000098407269 0.046675000339746475 -0.164450004696846 -0.011683999560773373
          0.046778999269008636 -0.16512799263000488 -0.005504999775439501 0.039250001311302185 -0.16312800347805023 -0.004550000187009573
          0.046146001666784286 -0.16599300503730774 -0.004749000072479248 0.04549099877476692 -0.16440999507904053 -0.003926000092178583
          0.0420369990170002 -0.1624079942703247 -0.003432000055909157 0.04036799818277359 -0.1623380035161972 -0.0038759999442845583
          0.03890300169587135 -0.16387200355529785 -0.006053999997675419 0.039781998842954636 -0.16469399631023407 -0.009525000117719173
          0.04068399965763092 -0.16532400250434875 -0.009812000207602978 0.04420299828052521 -0.16719099879264832 -0.013929000124335289
          0.045593999326229095 -0.16620099544525146 -0.01411799993366003 0.041742999106645584 -0.16602599620819092 -0.013555999845266342
          0.03985600173473358 -0.1650010049343109 -0.010564999654889107 0.04352099820971489 -0.16617600619792938 -0.014495999552309513
          0.04619099944829941 -0.16323600709438324 -0.006804000120609999 0.0457880012691021 -0.16244299709796906 -0.011350000277161598
          0.04385000094771385 -0.161640003323555 -0.008782999590039253 0.04530800133943558 -0.16247600317001343 -0.00661499984562397
          0.046202998608350754 -0.16442599892616272 -0.014090999960899353 0.045938000082969666 -0.16340699791908264 -0.014027000404894352
          0.04603800177574158 -0.16350999474525452 -0.004654999822378159 0.03877900168299675 -0.16245700418949127 -0.004687999840825796
          0.03948099911212921 -0.1622070074081421 -0.004253000020980835 0.044022999703884125 -0.16191500425338745 -0.003930999897420406
          0.04117000102996826 -0.16096599400043488 -0.004356999881565571 0.03965499997138977 -0.16119199991226196 -0.004933000076562166
          0.03697099909186363 -0.16100400686264038 -0.0047530001029372215 0.03622699901461601 -0.16201600432395935 -0.0063680000603199005
          0.027924999594688416 -0.1547500044107437 -0.009038000367581844 0.038787998259067535 -0.16287000477313995 -0.011451000347733498
          0.04546299949288368 -0.16408999264240265 -0.014680000022053719 0.03970099985599518 -0.16348899900913239 -0.01304600015282631
          0.03911900147795677 -0.16322100162506104 -0.012271000072360039 0.04071199893951416 -0.1624089926481247 -0.013868999667465687
          0.04544200003147125 -0.16241900622844696 -0.013918000273406506 0.04433799907565117 -0.1616089940071106 -0.01372199971228838
          0.0432949997484684 -0.1608400046825409 -0.011106000281870365 0.03986499831080437 -0.1605069935321808 -0.006382999941706657
          0.04467000067234039 -0.16258400678634644 -0.01460499968379736 0.03812199831008911 -0.1599069982767105 -0.004530000034719706
          0.030532000586390495 -0.15492300689220428 -0.001563000027090311 0.035767000168561935 -0.15846599638462067 -0.003674000035971403
          0.03384099900722504 -0.15666499733924866 -0.0028119999915361404 0.02853900007903576 -0.1535169929265976 -0.010444999672472477
          0.031106999143958092 -0.15569999814033508 -0.010559000074863434 0.0230919998139143 -0.1524520069360733 -0.007670999970287085
          0.03731999918818474 -0.16077400743961334 -0.012071999721229076 0.023912999778985977 -0.14920000731945038 -0.011133000254631042
          0.03894700109958649 -0.16234800219535828 -0.012404000386595726 0.03851500153541565 -0.16203400492668152 -0.011988000012934208
          0.04307499900460243 -0.16161000728607178 -0.014279000461101532 0.03883900120854378 -0.16161300241947174 -0.012675000354647636
          0.03853100165724754 -0.160739004611969 -0.012164000421762466 0.0418660007417202 -0.16057099401950836 -0.01312899962067604
          0.039535000920295715 -0.15993699431419373 -0.010289999656379223 0.03879699856042862 -0.16003699600696564 -0.011668999679386616
          0.03813999891281128 -0.159061998128891 -0.006955999881029129 0.036063000559806824 -0.15785099565982819 -0.003978000022470951
          0.023634999990463257 -0.15235300362110138 -0.0011709999525919557 0.023801999166607857 -0.15081800520420074 0.0008970000199042261
          0.025431999936699867 -0.14984600245952606 0.002355000004172325 0.03079799935221672 -0.1533759981393814 -0.0009699999936856329
          0.03417599946260452 -0.15582099556922913 -0.00344299990683794 0.030494999140501022 -0.1509619951248169 -0.0009919999865815043
          0.02623100019991398 -0.14951199293136597 -0.011366000398993492 0.028341000899672508 -0.15123000741004944 -0.011021999642252922
          0.03737099841237068 -0.15904000401496887 -0.011474999599158764 0.031888000667095184 -0.15408000349998474 -0.010901999659836292
          0.020898999646306038 -0.1511480063199997 -0.007389000151306391 0.021515000611543655 -0.1501139998435974 -0.009128999896347523
          0.01950100064277649 -0.15015199780464172 -0.004908000119030476 0.020762000232934952 -0.15085899829864502 -0.0023189999628812075
          0.03828899934887886 -0.1616860032081604 -0.012315000407397747 0.022513000294566154 -0.14752699434757233 -0.01083299983292818
          0.02002899907529354 -0.1486700028181076 -0.008360999636352062 0.02049900032579899 -0.14922299981117249 -0.008756999857723713
          0.032304998487234116 -0.15365199744701385 -0.0086899995803833 0.02474600076675415 -0.1484909951686859 0.0028019999153912067
          0.02288299985229969 -0.15000799298286438 0.0009319999953731894 0.025964999571442604 -0.14880700409412384 0.002739999908953905
          0.027286000549793243 -0.14882999658584595 0.002423000056296587 0.02805499918758869 -0.15008099377155304 0.001547000021673739
          0.030882999300956726 -0.1514669954776764 -0.004581000190228224 0.028937000781297684 -0.14702999591827393 -0.00016900000628083944
          0.02745000086724758 -0.1451990008354187 -0.0024949999060481787 0.028505999594926834 -0.14826500415802002 0.0016880000475794077
          0.026235999539494514 -0.14684100449085236 -0.010665000416338444 0.02889000065624714 -0.15081200003623962 -0.010762999765574932
          0.023205000907182693 -0.1461610049009323 -0.010324000380933285 0.020054999738931656 -0.14964500069618225 -0.007938000373542309
          0.019238999113440514 -0.14881600439548492 -0.0066280001774430275 0.01954999938607216 -0.14886699616909027 -0.007557000033557415
          0.01912499964237213 -0.1495939940214157 -0.0036009999457746744 0.018900999799370766 -0.14910100400447845 -0.004689999856054783
          0.019979000091552734 -0.15000499784946442 -0.0023380001075565815 0.021875999867916107 -0.15000900626182556 -0.00023499999952036887
          0.022792000323534012 -0.14677099883556366 -0.010366999544203281 0.021183999255299568 -0.14827199280261993 -0.008191999979317188
          0.023614000529050827 -0.1487479954957962 0.0013899999903514981 0.025679999962449074 -0.14813299477100372 0.00292899995110929
          0.02535399980843067 -0.1476230025291443 0.0024840000551193953 0.02518099918961525 -0.14729300141334534 0.002076999982818961
          0.023617999628186226 -0.14867399632930756 -0.0010019999463111162 0.026858000084757805 -0.14830900728702545 0.0026839999482035637
          0.026460999622941017 -0.14778800308704376 0.0026360000483691692 0.027482999488711357 -0.1468220055103302 0.0017300000181421638
          0.027372999116778374 -0.14627400040626526 -0.00938700046390295 0.027970999479293823 -0.14568200707435608 -0.00015700000221841037
          0.02550400048494339 -0.1442430019378662 -0.00622999994084239 0.026305999606847763 -0.14464600384235382 -0.0005719999899156392
          0.02566000074148178 -0.1438630074262619 -0.004102000035345554 0.024089999496936798 -0.14494700729846954 -0.009430999867618084
          0.02472200058400631 -0.14615799486637115 -0.007464999798685312 0.022595999762415886 -0.14922399818897247 -0.005472999997437
          0.02254899963736534 -0.14888300001621246 -0.006564000155776739 0.02046399936079979 -0.14956800639629364 -0.0025289999321103096
          0.021252000704407692 -0.14961500465869904 -0.0015030000358819962 0.022599000483751297 -0.1492139995098114 -0.0011390000581741333
          0.024582000449299812 -0.14765499532222748 -0.005654000211507082 0.025783000513911247 -0.145796000957489 0.0014319999609142542
          0.025290999561548233 -0.1467979997396469 -0.00011000000085914508 0.024455999955534935 -0.14830000698566437 -0.002584999892860651
          0.02501400001347065 -0.1443910002708435 -0.008348999544978142 0.026249999180436134 -0.1454329937696457 0.0007389999809674919
          0.0248819999396801 -0.1448889970779419 -0.0076430002227425575 0.025110999122262 -0.1445769965648651 -0.005764999892562628
          0.02583800069987774 -0.14653900265693665 -0.002618999918922782 0.025592999532818794 -0.14635199308395386 -0.0034749999176710844
          0.025232000276446342 -0.14603400230407715 -0.004182999953627586 0.02483700029551983 -0.14486299455165863 -0.008484000340104103
          0.02528199926018715 -0.14610899984836578 -0.0063240001909434795 0.021612999960780144 -0.1496720016002655 -0.00279600010253489
          0.023161999881267548 -0.149058997631073 -0.005332999862730503 0.02298000082373619 -0.1491200029850006 -0.004172000102698803
          0.0218339990824461 -0.1494709998369217 -0.001832999987527728 0.02519099973142147 -0.1469929963350296 -0.004738999996334314
          0.024615999311208725 -0.14753900468349457 -0.004337000194936991 0.024303000420331955 -0.14826799929141998 -0.004765999969094992
          0.025325000286102295 -0.14701999723911285 -0.0038640000857412815 0.024449000135064125 -0.14820900559425354 -0.0038530000019818544
          0.02496900036931038 -0.14672799408435822 -0.00418600020930171 0.024039000272750854 -0.1481429934501648 -0.0042420001700520515
          <InformationKey name="L2_NORM_RANGE" location="vtkDataArray" length="2">
            <Value index="0">
              0.14619106316
            </Value>
            <Value index="1">
              0.17418883611
            </Value>
          </InformationKey>
        </DataArray>
      </Points>
      <Verts>
        <DataArray type="Int64" Name="connectivity" format="ascii" RangeMin="1e+299" RangeMax="-1e+299">
        </DataArray>
        <DataArray type="Int64" Name="offsets" format="ascii" RangeMin="1e+299" RangeMax="-1e+299">
        </DataArray>
      </Verts>
      <Lines>
        <DataArray type="Int64" Name="connectivity" format="ascii" RangeMin="1e+299" RangeMax="-1e+299">
        </DataArray>
        <DataArray type="Int64" Name="offsets" format="ascii" RangeMin="1e+299" RangeMax="-1e+299">
        </DataArray>
      </Lines>
      <Strips>
        <DataArray type="Int64" Name="connectivity" format="ascii" RangeMin="1e+299" RangeMax="-1e+299">
        </DataArray>
        <DataArray type="Int64" Name="offsets" format="ascii" RangeMin="1e+299" RangeMax="-1e+299">
        </DataArray>
      </Strips>
      <Polys>
        <DataArray type="Int32" Name="connectivity" format="ascii" RangeMin="0" RangeMax="165">
          0 1 2 3 0 4
          0 5 1 2 4 0
          6 7 0 7 5 0
          0 3 6 5 8 1
          9 2 1 1 8 9
          2 10 11 2 12 10
          2 11 4 9 12 2
          10 13 3 4 10 3
          3 14 15 3 13 14
          3 15 6 4 11 10
          7 16 5 8 5 17
          17 5 16 18 7 6
          19 18 6 6 15 19
          16 7 20 7 18 20
          21 8 22 8 23 22
          9 8 21 17 23 8
          24 12 9 21 24 9
          13 10 25 12 26 10
          26 27 10 27 28 10
          28 29 10 29 25 10
          24 26 12 25 30 13
          13 30 31 13 31 14
          14 32 15 14 31 32
          15 32 19 20 33 16
          33 34 16 17 16 34
          23 17 34 20 18 35
          35 18 19 35 19 36
          36 19 32 37 20 35
          37 33 20 38 21 22
          21 38 24 23 39 22
          22 39 40 38 22 41
          22 40 41 42 43 23
          23 43 39 42 23 34
          44 24 38 26 24 27
          24 44 27 25 45 30
          45 25 46 25 29 46
          27 44 47 28 27 47
          48 29 28 47 48 28
          29 49 46 49 29 48
          50 30 45 51 30 50
          30 51 31 31 51 52
          52 53 31 36 32 31
          31 53 36 33 37 34
          37 54 34 54 42 34
          35 55 37 56 55 35
          56 35 36 53 56 36
          37 55 57 54 37 57
          41 44 38 39 43 58
          58 59 39 59 60 39
          60 40 39 61 40 60
          61 48 40 41 40 48
          47 44 41 47 41 48
          42 54 43 62 43 54
          58 43 62 49 63 45
          46 49 45 50 45 63
          49 48 61 49 61 63
          64 51 50 65 66 50
          66 64 50 63 65 50
          52 51 64 67 68 52
          69 52 64 68 70 52
          53 52 70 52 69 71
          67 52 71 72 56 53
          70 73 53 53 73 72
          54 74 62 54 57 74
          57 55 72 55 56 72
          72 75 57 76 57 75
          74 57 76 62 59 58
          77 59 74 62 74 59
          59 77 60 78 60 79
          60 78 61 77 79 60
          80 61 78 80 63 61
          63 80 81 81 65 63
          64 82 69 83 82 64
          84 83 64 64 85 84
          66 85 64 65 81 66
          86 66 81 85 66 87
          86 87 66 67 71 88
          67 88 89 67 89 68
          68 90 76 68 76 70
          68 89 91 91 90 68
          69 92 93 93 71 69
          92 69 94 69 95 94
          95 69 82 70 76 96
          70 96 73 97 71 98
          98 71 99 71 93 99
          71 97 88 73 75 72
          73 96 75 77 74 76
          76 75 96 90 79 76
          79 77 76 79 90 78
          90 100 78 100 80 78
          81 80 100 81 100 86
          95 82 83 101 102 83
          83 102 95 83 84 101
          103 101 84 104 84 105
          84 85 105 84 104 103
          87 105 85 100 106 86
          87 86 106 107 87 108
          87 106 108 109 87 107
          87 109 105 88 110 111
          112 88 97 111 89 88
          112 110 88 111 91 89
          90 91 100 111 100 91
          113 93 92 113 92 94
          93 113 99 94 114 115
          94 95 116 94 117 114
          115 113 94 116 117 94
          95 118 116 102 119 95
          119 118 95 97 120 112
          98 120 97 121 98 115
          115 98 99 98 121 120
          99 113 115 100 111 106
          102 101 122 101 123 124
          125 122 101 125 101 124
          123 101 103 126 102 122
          119 102 126 103 127 128
          104 127 103 128 123 103
          104 105 109 109 129 104
          127 104 129 106 111 130
          130 108 106 107 108 131
          107 129 109 107 131 129
          130 132 108 108 133 131
          134 108 132 108 134 133
          110 130 111 135 130 110
          135 110 112 136 112 120
          136 135 112 121 115 114
          114 117 137 121 114 138
          114 137 138 116 139 117
          116 118 139 139 137 117
          119 140 118 118 140 139
          126 141 119 141 140 119
          120 121 138 142 120 138
          142 136 120 126 122 125
          123 128 143 123 143 124
          143 125 124 144 126 125
          144 125 143 141 126 145
          145 126 144 128 127 129
          128 129 143 129 131 143
          130 135 146 130 146 132
          133 147 131 147 143 131
          132 146 148 148 149 132
          134 132 149 150 133 151
          144 133 150 133 144 147
          134 152 133 151 133 152
          134 149 152 146 135 153
          153 135 136 148 153 136
          142 154 136 148 136 154
          155 137 139 138 137 156
          137 157 156 137 155 157
          156 142 138 139 140 158
          158 155 139 141 158 140
          155 158 141 155 141 145
          159 142 160 142 156 161
          154 142 159 142 161 160
          143 147 144 150 145 144
          145 150 162 155 145 157
          157 145 163 162 163 145
          153 148 146 148 154 149
          154 152 149 150 151 162
          151 152 164 162 151 164
          152 154 159 159 164 152
          165 161 156 156 157 165
          163 165 157 164 159 160
          161 165 160 165 163 160
          163 162 160 162 164 160
        </DataArray>
        <DataArray type="Int32" Name="offsets" format="ascii" RangeMin="3" RangeMax="984">
          3 6 9 12 15 18
          21 24 27 30 33 36
          39 42 45 48 51 54
          57 60 63 66 69 72
          75 78 81 84 87 90
          93 96 99 102 105 108
          111 114 117 120 123 126
          129 132 135 138 141 144
          147 150 153 156 159 162
          165 168 171 174 177 180
          183 186 189 192 195 198
          201 204 207 210 213 216
          219 222 225 228 231 234
          237 240 243 246 249 252
          255 258 261 264 267 270
          273 276 279 282 285 288
          291 294 297 300 303 306
          309 312 315 318 321 324
          327 330 333 336 339 342
          345 348 351 354 357 360
          363 366 369 372 375 378
          381 384 387 390 393 396
          399 402 405 408 411 414
          417 420 423 426 429 432