<?xml version="1.0"?>
<VTKFile type="PolyData" version="0.1" byte_order="LittleEndian" header_type="UInt32" compressor="vtkZLibDataCompressor">
  <PolyData>
    <Piece NumberOfPoints="235" NumberOfVerts="0" NumberOfLines="0" NumberOfStrips="0" NumberOfPolys="466">
      <PointData Normals="Normals">
        <DataArray type="Float32" Name="Normals" NumberOfComponents="3" format="ascii" RangeMin="0.9999993211945465" RangeMax="1.000000775278403">
          0.33292001485824585 -0.26468798518180847 -0.9050440192222595 0.28726398944854736 -0.4154050052165985 -0.8630859851837158
          0.29437100887298584 -0.09350699931383133 -0.9511060118675232 0.6278070211410522 0.15183599293231964 -0.7634159922599792
          0.6009340286254883 -0.5187439918518066 -0.6080979704856873 0.14151200652122498 -0.37956300377845764 -0.9142789840698242
          0.21290799975395203 -0.4322119951248169 -0.8762779831886292 0.5613359808921814 -0.4772930145263672 -0.6760870218276978
          0.048030998557806015 -0.49426698684692383 -0.8679819703102112 0.36096298694610596 -0.49789300560951233 -0.7885479927062988
          -0.08636700361967087 -0.13091899454593658 -0.9876239895820618 -0.04591500014066696 0.15444700419902802 -0.9869340062141418
          0.31042200326919556 0.20838500559329987 -0.9274770021438599 0.5849249958992004 0.4551360011100769 -0.6713520288467407
          0.7344269752502441 0.24100199341773987 -0.6344559788703918 0.6095560193061829 0.4361160099506378 -0.6620010137557983
          0.6771199703216553 0.36855998635292053 -0.6369240283966064 0.9607399702072144 -0.13412299752235413 -0.2428780049085617
          0.8092280030250549 -0.5201299786567688 -0.2731580138206482 0.31181201338768005 0.36760398745536804 -0.8761510252952576
          0.3381060063838959 0.5571849942207336 -0.7584390044212341 0.46247100830078125 0.33410200476646423 -0.8212770223617554
          0.7093660235404968 -0.7047590017318726 0.010691000148653984 0.6733409762382507 -0.7307119965553284 -0.1125670000910759
          0.3168030083179474 -0.6386640071868896 -0.7012450098991394 0.4316369891166687 -0.5208269953727722 -0.7364979982376099
          0.009739999659359455 -0.46334001421928406 -0.8861269950866699 -0.028617000207304955 -0.22512899339199066 -0.9739090204238892
          0.0855569988489151 -0.6230000257492065 -0.7775290012359619 0.2545349895954132 -0.8153820037841797 -0.5199660062789917
          -0.7360389828681946 -0.19812600314617157 -0.6472970247268677 -0.7276309728622437 0.34967100620269775 -0.5901550054550171
          -0.14228199422359467 0.7354649901390076 -0.6624550223350525 -0.2131900042295456 -0.3082759976387024 -0.9271010160446167
          0.5780410170555115 0.573980987071991 -0.5800120234489441 0.5767499804496765 0.5338150262832642 -0.6183859705924988
          0.9334560036659241 0.11706499755382538 -0.3390499949455261 0.7887009978294373 0.3359229862689972 -0.5148850083351135
          0.4268139898777008 0.7475299835205078 -0.5089489817619324 0.7003830075263977 0.4667710065841675 -0.5399889945983887
          0.7044969797134399 -0.7033010125160217 0.09513600170612335 0.9644010066986084 0.16958799958229065 -0.202906996011734
          0.9796820282936096 0.20016099512577057 0.01259700022637844 0.8971899747848511 -0.3272300064563751 0.29659900069236755
          0.27140799164772034 0.8156970143318176 -0.5108590126037598 0.6841999888420105 -0.7288770079612732 0.02468300051987171
          0.6783459782600403 -0.7332980036735535 0.04603800177574158 0.6659110188484192 -0.7453910112380981 0.030897999182343483
          -0.20265400409698486 -0.6183000206947327 -0.759365975856781 -0.009765000082552433 -0.4149329960346222 -0.9097989797592163
          -0.22856800258159637 -0.9500979781150818 -0.21229800581932068 -0.5872049927711487 -0.7222639918327332 -0.3654100000858307
          -0.038054998964071274 -0.9930059909820557 0.1117589995265007 -0.5974239706993103 -0.46205198764801025 -0.6554329991340637
          -0.9417160153388977 -0.1334560066461563 -0.30880600214004517 -0.8337720036506653 -0.4055269956588745 -0.37466299533843994
          -0.914825975894928 -0.35310500860214233 -0.19598500430583954 -0.9155219793319702 -0.3036940097808838 -0.2637979984283447
          -0.5530890226364136 0.7892400026321411 -0.26681798696517944 -0.8333100080490112 0.5487440228462219 -0.06688500195741653
          -0.9934300184249878 0.09414199739694595 -0.0650700032711029 -0.9668949842453003 0.05650600045919418 -0.24884100258350372
          0.16655400395393372 0.9284170269966125 -0.3321169912815094 -0.48535799980163574 0.81666100025177 -0.31223899126052856
          -0.5724890232086182 0.7947279810905457 -0.20165500044822693 0.8046249747276306 0.4293450117111206 -0.41017401218414307
          0.7756069898605347 0.6220239996910095 -0.10732699930667877 0.4389970004558563 0.8244699835777283 -0.3571139872074127
          0.9590910077095032 0.20347799360752106 -0.1968259960412979 0.36771899461746216 0.8952630162239075 -0.251569002866745
          0.48071199655532837 0.8049910068511963 -0.34771400690078735 0.3837539851665497 -0.9032949805259705 0.1918109953403473
          0.6537989974021912 -0.7561569809913635 0.027799999341368675 0.6050879955291748 -0.7087950110435486 0.3625989854335785
          0.8221079707145691 0.534958004951477 0.19482800364494324 0.9598410129547119 0.20710599422454834 0.18924200534820557
          0.8546320199966431 -0.23295000195503235 0.464044988155365 0.6090229749679565 -0.3960700035095215 0.6871820092201233
          0.5942280292510986 -0.6108319759368896 0.5232369899749756 0.8931789994239807 0.38402000069618225 0.2340089976787567
          0.8898130059242249 -0.045976001769304276 0.4540039896965027 0.4322730004787445 -0.8939800262451172 0.1180649995803833
          -0.4710400104522705 -0.5839160084724426 -0.6611829996109009 -0.6915270090103149 -0.7154790163040161 0.0994030013680458
          -0.8274000287055969 -0.47247299551963806 -0.3036090135574341 -0.743274986743927 -0.48575499653816223 -0.4599840044975281
          -0.8899019956588745 -0.45358601212501526 -0.04831700026988983 -0.8704349994659424 -0.4824320077896118 0.0979899987578392
          -0.48585501313209534 -0.8490560054779053 -0.2074809968471527 -0.7366160154342651 -0.6738479733467102 0.057677000761032104
          -0.22648300230503082 -0.9471539855003357 0.22716499865055084 -0.03051700070500374 -0.9964650273323059 0.07826899737119675
          -0.9252870082855225 -0.3104409873485565 -0.21787799894809723 -0.962448000907898 -0.18029099702835083 -0.20295299589633942
          -0.9307469725608826 -0.35867801308631897 -0.07113999873399734 -0.919867992401123 -0.3838360011577606 -0.08070000261068344
          -0.7358239889144897 0.6728870272636414 0.07605999708175659 -0.9290019869804382 0.36636701226234436 -0.052257001399993896
          0.49465200304985046 0.8690459728240967 -0.008871999569237232 0.48416200280189514 0.8680109977722168 -0.11020299792289734
          -0.2396160066127777 0.9472929835319519 -0.21264800429344177 -0.674098014831543 0.7065160274505615 -0.21546900272369385
          -0.7938600182533264 0.5871899724006653 -0.15809600055217743 -0.7943779826164246 0.6038299798965454 -0.06597000360488892
          -0.6495800018310547 0.7524009943008423 -0.10926300287246704 -0.7711139917373657 0.6360070109367371 0.029642000794410706
          0.8237239718437195 0.5079929828643799 0.25183698534965515 0.5321189761161804 0.8464589715003967 -0.01888599991798401
          0.4709230065345764 -0.8740419745445251 0.11951100081205368 0.6256530284881592 -0.6642280220985413 0.40909498929977417
          0.5141419768333435 -0.6985809803009033 0.497637003660202 0.5814030170440674 -0.6238759756088257 0.5222539901733398
          0.5513970255851746 -0.6747959852218628 0.49052199721336365 0.7511370182037354 0.6414669752120972 0.15592600405216217
          0.8499370217323303 -0.03980199992656708 0.5253779888153076 0.42952701449394226 -0.36901700496673584 0.8242170214653015
          0.5144050121307373 -0.3795109987258911 0.7689989805221558 0.5527290105819702 -0.4663250148296356 0.6906740069389343
          0.5336650013923645 -0.5186480283737183 0.6679859757423401 0.30504900217056274 -0.13596299290657043 0.9425809979438782
          0.3681359887123108 -0.2785170078277588 0.8870760202407837 0.6837829947471619 -0.05154399946331978 0.7278630137443542
          0.5182979702949524 -0.5732300281524658 0.6346449851989746 0.7767410278320312 0.6174719929695129 0.12410400062799454
          0.7669100165367126 0.6215749979019165 0.15967099368572235 0.8976899981498718 0.2394469976425171 0.3698889911174774
          0.8166419863700867 0.5107929706573486 0.2686749994754791 0.8585489988327026 0.48072999715805054 0.17830200493335724
          0.826462984085083 0.346996009349823 0.443342000246048 -0.8126239776611328 -0.5726050138473511 -0.1084669977426529
          -0.8833069801330566 -0.45872899889945984 0.09662500023841858 -0.4829919934272766 -0.7972930073738098 -0.3619990050792694
          -0.4938409924507141 -0.7560439705848694 -0.4295569956302643 -0.21932899951934814 -0.9186509847640991 -0.32859501242637634
          0.2930710017681122 -0.9328380227088928 -0.20957599580287933 -0.7741169929504395 -0.5457940101623535 -0.32070600986480713
          -0.8195840120315552 -0.3455980122089386 -0.45699501037597656 -0.9516459703445435 -0.14733199775218964 -0.2695620059967041
          -0.9246699810028076 0.1385599970817566 -0.35466399788856506 -0.9732040166854858 0.22444799542427063 0.049963999539613724
          -0.951121985912323 0.3084050118923187 0.01590999960899353 -0.9317740201950073 0.351855993270874 -0.08940699696540833
          -0.9509680271148682 0.3046320080757141 0.05347000062465668 -0.9090290069580078 0.4101960062980652 0.07352499663829803
          -0.894752025604248 0.3996430039405823 -0.19925999641418457 -0.879921019077301 0.3870700001716614 -0.27552899718284607
          -0.8171330094337463 0.42328399419784546 -0.39131098985671997 -0.8502169847488403 0.3812530040740967 -0.3630110025405884
          -0.7808520197868347 0.4589090049266815 -0.423878014087677 0.7921220064163208 0.5732150077819824 0.20968100428581238
          0.33928200602531433 0.9266840219497681 0.1616940051317215 0.16400599479675293 0.9850500226020813 0.05271799862384796
          -0.5025910139083862 0.852387011051178 -0.14435799419879913 -0.7602570056915283 0.6495580077171326 -0.009192000143229961
          0.8705599904060364 0.4227980077266693 0.25172901153564453 0.41883400082588196 -0.8728209733963013 0.2505219876766205
          0.5162140130996704 -0.8508920073509216 -0.09749999642372131 0.4674060046672821 -0.8840259909629822 -0.005373999942094088
          0.33665499091148376 -0.7254469990730286 0.6003249883651733 0.4007990062236786 -0.8045629858970642 0.4382219910621643
          0.7479339838027954 0.3977479934692383 0.531404972076416 0.4452759921550751 -0.2703399956226349 0.8536069989204407
          0.5894259810447693 -0.4441939890384674 0.6747360229492188 0.5231540203094482 -0.2955940067768097 0.7993329763412476
          0.13951699435710907 -0.4624229967594147 0.8756139874458313 0.24658100306987762 -0.5471490025520325 0.7998909950256348
          0.2676610052585602 0.4982529878616333 0.8246830105781555 0.12032300233840942 0.26953399181365967 0.9554439783096313
          0.26090800762176514 -0.03340499848127365 0.9647859930992126 0.8564469814300537 0.4730829894542694 0.206618994474411
          0.6484150290489197 0.6808810234069824 0.3405280113220215 0.9098230004310608 0.29729101061820984 0.2895529866218567
          0.9086059927940369 0.3164049983024597 0.2726219892501831 -0.5435649752616882 -0.7410010099411011 -0.39427798986434937
          -0.1462559998035431 -0.8995069861412048 -0.4117000102996826 -0.07064200192689896 -0.8599269986152649 -0.5055059790611267
          -0.31994301080703735 -0.7838050127029419 -0.5322459936141968 0.08210500329732895 -0.9777910113334656 -0.19283199310302734
          -0.5271080136299133 -0.6777510046958923 -0.5126510262489319 -0.7179239988327026 -0.49825599789619446 -0.48613399267196655
          -0.5684930086135864 -0.6508119702339172 -0.5032489895820618 -0.9228789806365967 -0.14365799725055695 -0.3572919964790344
          -0.9566550254821777 -0.09852699935436249 -0.2740490138530731 -0.8769099712371826 -0.17191900312900543 -0.44885700941085815
          -0.9349219799041748 -0.09301500022411346 -0.3424470126628876 -0.9396229982376099 0.17462299764156342 -0.2943060100078583
          -0.6621930003166199 0.7436090111732483 -0.0924450010061264 -0.8128650188446045 0.5112370252609253 -0.2790830135345459
          -0.8195679783821106 0.45073801279067993 -0.35375699400901794 -0.7919629812240601 0.5822550058364868 -0.18377800285816193
          -0.8167660236358643 0.4369490146636963 -0.376787006855011 -0.7758129835128784 0.4887309968471527 -0.39906999468803406
          -0.7750830054283142 0.47960400581359863 -0.41137099266052246 -0.8047980070114136 0.45148101449012756 -0.3853130042552948
          0.29469001293182373 0.8705809712409973 0.39401400089263916 -0.013764999806880951 0.951915979385376 0.30605098605155945
          -0.10858699679374695 0.9861869812011719 0.12507499754428864 0.02995399944484234 -0.9193140268325806 0.39238399267196655
          -0.03396899998188019 -0.9503710269927979 0.30925801396369934 0.13975900411605835 -0.9871739745140076 0.07716500014066696
          -0.5268359780311584 -0.5843690037727356 0.6172170042991638 -0.6360250115394592 -0.7158380150794983 0.28818199038505554
          0.2834089994430542 -0.01607299968600273 0.9588639736175537 0.328328013420105 0.16438399255275726 0.9301499724388123
          0.13788799941539764 -0.33157598972320557 0.9332979917526245 -0.30887699127197266 -0.4924579858779907 0.8136839866638184
          -0.22142300009727478 -0.37665700912475586 0.8995000123977661 0.18664400279521942 0.8301100134849548 0.5254340171813965
          -0.43156200647354126 0.8061649799346924 0.40478500723838806 0.009229999966919422 0.5341770052909851 0.8453220129013062
          -0.014522000215947628 0.399524986743927 0.9166070222854614 0.0706930011510849 0.33762800693511963 0.9386209845542908
          -0.03429200127720833 0.5009580254554749 0.864791989326477 0.04347199946641922 -0.916608989238739 -0.39741501212120056
          -0.5319929718971252 -0.7827600240707397 -0.32290899753570557 -0.29893800616264343 -0.9456629753112793 0.12789499759674072
          -0.8805779814720154 -0.43059200048446655 -0.1979209929704666 -0.9752020239830017 -0.19861799478530884 -0.09762600064277649
          -0.999334990978241 -0.03179100155830383 -0.017853999510407448 -0.9965190291404724 0.08111699670553207 -0.01924999989569187
          -0.8817480206489563 0.3852519989013672 -0.2722170054912567 -0.9748290181159973 -0.22289599478244781 -0.005005999933928251
          -0.9902179837226868 -0.1394129991531372 -0.005710999947041273 -0.7960019707679749 0.5463680028915405 -0.2605080008506775
          -0.832843005657196 0.4560770094394684 -0.313632994890213 -0.6893680095672607 -0.32304298877716064 0.648393988609314
          -0.9075310230255127 -0.21097299456596375 0.3631489872932434 -0.927839994430542 -0.3165839910507202 0.19720199704170227
          -0.47755900025367737 0.04122300073504448 0.8776320219039917 -0.7646729946136475 0.5941759943962097 0.24945999681949615
          0.056612998247146606 0.3904770016670227 0.9188699722290039 -0.955610990524292 -0.1906300038099289 0.2246520072221756
          -0.964568018913269 0.19282999634742737 0.1800689995288849 -0.9657750129699707 -0.2585830092430115 0.02033800072968006
          -0.9690859913825989 -0.2452480047941208 0.026930000633001328
          <InformationKey name="L2_NORM_RANGE" location="vtkDataArray" length="2">
            <Value index="0">
              0.99999932119
            </Value>
            <Value index="1">
              1.0000007753
            </Value>
          </InformationKey>
        </DataArray>
      </PointData>
      <CellData>
      </CellData>
      <Points>
        <DataArray type="Float32" Name="Points" NumberOfComponents="3" format="ascii" RangeMin="0.07524157198481232" RangeMax="0.09998500726518167">
          0.0845009982585907 0.02295600064098835 -0.03599200025200844 0.08278399705886841 0.023010000586509705 -0.03627400100231171
          0.0834909975528717 0.02505600079894066 -0.036851998418569565 0.08620700240135193 0.026402000337839127 -0.03532100096344948
          0.08531200140714645 0.020824000239372253 -0.03494099900126457 0.08363399654626846 0.021105000749230385 -0.03541899845004082
          0.08128099888563156 0.021932000294327736 -0.036706000566482544 0.08164999634027481 0.02165300026535988 -0.036173999309539795
          0.08260300010442734 0.02011300064623356 -0.03508700057864189 0.08168599754571915 0.02011599950492382 -0.03510800004005432
          0.08085200190544128 0.023329000920057297 -0.03700700029730797 0.07944899797439575 0.028240999206900597 -0.037004999816417694
          0.08350399881601334 0.0267379991710186 -0.036559998989105225 0.08798299729824066 0.03138799965381622 -0.03133000060915947
          0.08883500099182129 0.030848000198602676 -0.031000999733805656 0.08672100305557251 0.0322830006480217 -0.03210499882698059
          0.08727599680423737 0.03183700144290924 -0.03171699866652489 0.09127800166606903 0.028852000832557678 -0.026910999789834023
          0.0865819975733757 0.021784000098705292 -0.033976998180150986 0.08364199846982956 0.028181999921798706 -0.036107998341321945
          0.08503899723291397 0.030981000512838364 -0.034212999045848846 0.08482299745082855 0.029366999864578247 -0.03503600135445595
          0.08511800318956375 0.02048099972307682 -0.03282900154590607 0.08424100279808044 0.019387999549508095 -0.03360600024461746
          0.0841199979186058 0.019794000312685966 -0.0347680002450943 0.08128300309181213 0.02041799947619438 -0.035652000457048416
          0.08010999858379364 0.02069699950516224 -0.035989999771118164 0.08013000339269638 0.02267099916934967 -0.03666900098323822
          0.0807029977440834 0.01978899911046028 -0.035291001200675964 0.08222000300884247 0.017812000587582588 -0.03319999948143959
          0.0767349973320961 0.02595899999141693 -0.03650100156664848 0.07563400268554688 0.02984200045466423 -0.03519099950790405
          0.07795400172472 0.030949000269174576 -0.035711001604795456 0.07871600240468979 0.02295600064098835 -0.03699899837374687
          0.08848699927330017 0.032951001077890396 -0.029596999287605286 0.08933000266551971 0.03242800012230873 -0.029298000037670135
          0.09023699909448624 0.03136900067329407 -0.028913000598549843 0.09014099836349487 0.03185499832034111 -0.02900099940598011
          0.08734899759292603 0.033959001302719116 -0.030141999945044518 0.08798500150442123 0.03340199962258339 -0.029934000223875046
          0.08482400327920914 0.020287999883294106 -0.02472200058400631 0.09079200029373169 0.031286001205444336 -0.026611000299453735
          0.09116800129413605 0.031366001814603806 -0.024508999660611153 0.09071200340986252 0.028140999376773834 -0.022084999829530716
          0.0859529972076416 0.03591100126504898 -0.027884000912308693 0.08347299695014954 0.01897599920630455 -0.029154999181628227
          0.08385100215673447 0.019202999770641327 -0.03145499899983406 0.08371400088071823 0.019262000918388367 -0.02751000039279461
          0.07992800325155258 0.020215999335050583 -0.03567799925804138 0.07946199923753738 0.02181899920105934 -0.036538999527692795
          0.08113999664783478 0.01734899915754795 -0.031957998871803284 0.07918400317430496 0.019039999693632126 -0.03400300070643425
          0.0812859982252121 0.01714400015771389 -0.029621999710798264 0.0786060020327568 0.02201100066304207 -0.03629999980330467
          0.07532799988985062 0.0288309995085001 -0.03466099873185158 0.07785800099372864 0.02245499938726425 -0.03550399839878082
          0.07667499780654907 0.024947000667452812 -0.03543800115585327 0.0761910006403923 0.026095999404788017 -0.03540100157260895
          0.07621199637651443 0.0314750000834465 -0.03296399861574173 0.07522699981927872 0.03053699992597103 -0.033608000725507736
          0.07498200237751007 0.029652999714016914 -0.03321399912238121 0.0751190036535263 0.029397999867796898 -0.03396400064229965
          0.08430200070142746 0.037783000618219376 -0.02553199976682663 0.0789719969034195 0.034205999225378036 -0.029802000150084496
          0.07725200057029724 0.03241200000047684 -0.032134998589754105 0.09011299908161163 0.03340400010347366 -0.02758299931883812
          0.08994200080633163 0.03482099995017052 -0.026141999289393425 0.08905500173568726 0.03524300083518028 -0.025812000036239624
          0.09056299924850464 0.031950000673532486 -0.027298999950289726 0.08832500129938126 0.03551900014281273 -0.025536999106407166
          0.08745899796485901 0.035096000880002975 -0.027504999190568924 0.08284900337457657 0.018547000363469124 -0.023979999125003815
          0.08409599959850311 0.019682999700307846 -0.025861000642180443 0.08149400353431702 0.021462999284267426 -0.014654000289738178
          0.09047900140285492 0.032311998307704926 -0.022856999188661575 0.09074299782514572 0.0314829982817173 -0.022254999727010727
          0.08535200357437134 0.031039999797940254 -0.009839000180363655 0.08387699723243713 0.02848299965262413 -0.008617999963462353
          0.0836540013551712 0.024706000462174416 -0.01145000010728836 0.08967000246047974 0.03199300169944763 -0.017830999568104744
          0.08671300113201141 0.03327000141143799 -0.01143100019544363 0.08247800171375275 0.018118999898433685 -0.025793999433517456
          0.07914900034666061 0.02046399936079979 -0.03553200140595436 0.08048699796199799 0.017486000433564186 -0.03003299981355667
          0.07856199890375137 0.02013299986720085 -0.03445599973201752 0.07853099703788757 0.02107900008559227 -0.03547399863600731
          0.07800000160932541 0.020563999190926552 -0.03290000185370445 0.07845599949359894 0.01996999979019165 -0.031300000846385956
          0.07891000062227249 0.019070999696850777 -0.026386000216007233 0.08019199967384338 0.018207000568509102 -0.028988000005483627
          0.0810139998793602 0.018404999747872353 -0.025913000106811523 0.07949600368738174 0.01904899999499321 -0.02537599951028824
          0.07572799921035767 0.027031000703573227 -0.03476100042462349 0.07521899789571762 0.024261999875307083 -0.027984000742435455
          0.07719100266695023 0.023027999326586723 -0.03390499949455261 0.07695599645376205 0.024157999083399773 -0.03402800112962723
          0.0764089971780777 0.0316459983587265 -0.03193100169301033 0.0775810033082962 0.028919000178575516 -0.02097499929368496
          0.08679000288248062 0.03742700070142746 -0.019648000597953796 0.0881349965929985 0.035801999270915985 -0.02399500086903572
          0.08018399775028229 0.039250001311302185 -0.019231000915169716 0.08028499782085419 0.03878000006079674 -0.02098900079727173
          0.0794219970703125 0.03645399957895279 -0.025702999904751778 0.07841800153255463 0.033918000757694244 -0.028548000380396843
          0.07796800136566162 0.03325600177049637 -0.030717000365257263 0.07720799744129181 0.03246600180864334 -0.03139699995517731
          0.08933199942111969 0.03342499956488609 -0.02218100056052208 0.08893200010061264 0.03548499941825867 -0.024555999785661697
          0.0807500034570694 0.01936200074851513 -0.01959099993109703 0.07795900106430054 0.01830900087952614 -0.014479000121355057
          0.07782399654388428 0.020831000059843063 -0.010848999954760075 0.07802499830722809 0.01940999925136566 -0.013074000366032124
          0.0779310017824173 0.02015100046992302 -0.012186000123620033 0.08972399681806564 0.03260999917984009 -0.021067000925540924
          0.0852700024843216 0.03283499926328659 -0.008914999663829803 0.07778800278902054 0.02827800065279007 -0.005373000167310238
          0.07622399926185608 0.02617499977350235 -0.005497000180184841 0.07673700153827667 0.024460000917315483 -0.007009999826550484
          0.07731600105762482 0.02285500057041645 -0.00861200038343668 0.0814250037074089 0.03195999935269356 -0.005625999998301268
          0.07948800176382065 0.03029800020158291 -0.0053519997745752335 0.08352600038051605 0.03300200030207634 -0.006328999996185303
          0.07812199741601944 0.02195199951529503 -0.010001000016927719 0.0875839963555336 0.034745000302791595 -0.016321999952197075
          0.08696900308132172 0.034984998404979706 -0.01420500036329031 0.08769600093364716 0.03354400023818016 -0.013683999888598919
          0.0872649997472763 0.03440399840474129 -0.013430999591946602 0.08818899840116501 0.03429599851369858 -0.019657999277114868
          0.08645699918270111 0.03417300060391426 -0.011281000450253487 0.07819800078868866 0.020925000309944153 -0.029044000431895256
          0.07821500301361084 0.020766999572515488 -0.03032599948346615 0.07775700092315674 0.018862999975681305 -0.024136999621987343
          0.07743100076913834 0.02057100087404251 -0.02631399966776371 0.07765699923038483 0.01812100037932396 -0.021712999790906906
          0.07854899764060974 0.0178849995136261 -0.02142000012099743 0.07728199660778046 0.022267000749707222 -0.02938999980688095
          0.07542199641466141 0.02263600006699562 -0.027281999588012695 0.07501400262117386 0.02213199995458126 -0.025477999821305275
          0.073853999376297 0.023017000406980515 -0.021243000403046608 0.07934200018644333 0.03618700057268143 -0.02298099920153618
          0.07904600352048874 0.03539400175213814 -0.02485099993646145 0.07979899644851685 0.03783100098371506 -0.021084999665617943
          0.07869700342416763 0.034511998295784 -0.026335999369621277 0.07832299917936325 0.033642999827861786 -0.027744000777602196
          0.07969799637794495 0.03830600157380104 -0.01948999986052513 0.07946400344371796 0.03862300142645836 -0.01797099970281124
          0.07532499730587006 0.035677000880241394 -0.010869000107049942 0.0773169994354248 0.037668000906705856 -0.013043999671936035
          0.07188700139522552 0.03028400056064129 -0.009971999563276768 0.08708000183105469 0.036979999393224716 -0.018933000043034554
          0.08209399878978729 0.03923499956727028 -0.015999000519514084 0.08099199831485748 0.039487000554800034 -0.016673000529408455
          0.0799110010266304 0.03958100080490112 -0.01746699959039688 0.07787799835205078 0.033257998526096344 -0.03000899963080883
          0.0887949988245964 0.03377699851989746 -0.020934000611305237 0.07806699723005295 0.017335999757051468 -0.016462000086903572
          0.07878100126981735 0.017743999138474464 -0.019533000886440277 0.07814300060272217 0.017253000289201736 -0.018207000568509102
          0.07467100024223328 0.020759999752044678 -0.007892999798059464 0.07713499665260315 0.017992999404668808 -0.013895999640226364
          0.08501800149679184 0.03376400098204613 -0.008740000426769257 0.07603999972343445 0.027813000604510307 -0.004707000218331814
          0.07538200169801712 0.023854000493884087 -0.006053999997675419 0.07475200295448303 0.027481000870466232 -0.003959000110626221
          0.07370100170373917 0.025617999956011772 -0.004013000056147575 0.07420500367879868 0.023538999259471893 -0.005359000060707331
          0.08307600021362305 0.03348600119352341 -0.006068000104278326 0.07878199964761734 0.03097599931061268 -0.005177000071853399
          0.07923799753189087 0.030741000548005104 -0.0052269999869167805 0.08683999627828598 0.03573400154709816 -0.01669600047171116
          0.08536600321531296 0.03626000136137009 -0.012609999626874924 0.08764500170946121 0.035691000521183014 -0.019394999369978905
          0.08692300319671631 0.03633899986743927 -0.017619000747799873 0.07742399722337723 0.021391000598669052 -0.027884000912308693
          0.07662799954414368 0.01843000017106533 -0.02191000059247017 0.07597199827432632 0.019631000235676765 -0.024421000853180885
          0.076384998857975 0.020997000858187675 -0.02639099955558777 0.07716800272464752 0.01697699911892414 -0.01899999938905239
          0.07637099921703339 0.021918000653386116 -0.027897000312805176 0.07540600001811981 0.021407999098300934 -0.0263030007481575
          0.07458499819040298 0.018616000190377235 -0.022561000660061836 0.07405199855566025 0.01931699924170971 -0.0208979994058609
          0.07429099828004837 0.018843999132514 -0.021771999076008797 0.07290499657392502 0.018953999504446983 -0.01858600042760372
          0.07197699695825577 0.02034199982881546 -0.01720600016415119 0.0712440013885498 0.02428700029850006 -0.014511999674141407
          0.07732799649238586 0.03850800171494484 -0.012112000025808811 0.07508400082588196 0.03621299937367439 -0.009704000316560268
          0.07457400113344193 0.034869998693466187 -0.010147999972105026 0.07617399841547012 0.03737099841237068 -0.01079300045967102
          0.07113999873399734 0.03022100031375885 -0.008875999599695206 0.07183100283145905 0.031192999333143234 -0.008945999667048454
          0.07265699654817581 0.03285299986600876 -0.008534999564290047 0.07375700026750565 0.03402699902653694 -0.009339000098407269
          0.08050599694252014 0.0385110005736351 -0.012823999859392643 0.07788299769163132 0.03860799968242645 -0.0114139998331666
          0.07922700047492981 0.03925799950957298 -0.014638000167906284 0.07643900066614151 0.017954999580979347 -0.013633999973535538
          0.0754690021276474 0.017210999503731728 -0.015461999922990799 0.07722000032663345 0.016964999958872795 -0.017424000427126884
          0.07232499867677689 0.023559000343084335 -0.0059460001066327095 0.07237400114536285 0.01883300021290779 -0.013753999955952168
          0.07361000031232834 0.028720999136567116 -0.002822000067681074 0.07589899748563766 0.02979700081050396 -0.004075999837368727
          0.07361999899148941 0.02736400067806244 -0.0032939999364316463 0.07287000119686127 0.02546199969947338 -0.004275999963283539