<?xml version="1.0"?>
<VTKFile type="PolyData" version="0.1" byte_order="LittleEndian" header_type="UInt32" compressor="vtkZLibDataCompressor">
  <PolyData>
    <Piece NumberOfPoints="72" NumberOfVerts="0" NumberOfLines="0" NumberOfStrips="0" NumberOfPolys="140">
      <PointData Normals="Normals">
        <DataArray type="Float32" Name="Normals" NumberOfComponents="3" format="ascii" RangeMin="0.9999992949415455" RangeMax="1.000000617945557">
          0.5638729929924011 0.8091570138931274 -0.16526299715042114 -0.10461299866437912 0.9017289876937866 -0.4194529950618744
          0.1959179937839508 0.9806039929389954 0.005723999813199043 0.7141500115394592 0.5807939767837524 -0.3907279968261719
          -0.19757400453090668 0.6471740007400513 -0.7362949848175049 0.6416530013084412 0.7663900256156921 0.03045099973678589
          -0.7183570265769958 0.6889280080795288 -0.0966539978981018 -0.9649230241775513 0.24159599840641022 -0.10273700207471848
          0.598809003829956 0.800432026386261 -0.027122000232338905 0.5502719879150391 0.834892988204956 0.012381999753415585
          0.22182099521160126 0.9601569771766663 0.16998399794101715 -0.4298909902572632 0.8807809948921204 0.19853900372982025
          -0.7764340043067932 0.6301959753036499 -0.001690999954007566 -0.8495519757270813 0.5272210240364075 0.017305999994277954
          0.8028339743614197 0.5902400016784668 -0.08410800248384476 0.8119890093803406 0.05003499984741211 -0.5815240144729614
          -0.21044500172138214 0.040782999247312546 -0.9767550230026245 -0.9981570243835449 0.017347000539302826 -0.05816100165247917
          -0.9893720149993896 -0.07304099947214127 0.12572599947452545 -0.9780460000038147 -0.058563001453876495 0.19998900592327118
          0.8079109787940979 0.5891069769859314 0.015282000415027142 0.6975269913673401 0.6773769855499268 0.23370300233364105
          -0.02446099929511547 0.836558997631073 0.5473300218582153 -0.9132980108261108 0.3752889931201935 0.15825699269771576
          -0.9856389760971069 -0.016952000558376312 -0.16801199316978455 0.9805309772491455 0.11814200133085251 -0.1568470001220703
          0.7030280232429504 -0.3554939925670624 -0.6159350275993347 -0.09425999969244003 -0.417620986700058 -0.9037190079689026
          -0.9732890129089355 0.04130600020289421 -0.22583800554275513 -0.9509469866752625 0.23400400578975677 0.2023400068283081
          -0.9673399925231934 -0.11572399735450745 -0.22552399337291718 -0.9738280177116394 0.1893160045146942 -0.12577100098133087
          0.9833629727363586 0.14833299815654755 0.10485699772834778 0.8343700170516968 0.1846189945936203 0.5193679928779602
          -0.20385099947452545 0.1727299988269806 0.9636440277099609 -0.9979699850082397 -0.009351000189781189 0.06299199908971786
          0.9598339796066284 -0.1782280057668686 -0.21668599545955658 0.6227160096168518 -0.357574999332428 -0.6959630250930786
          -0.007981999777257442 -0.4618319869041443 -0.8869310021400452 -0.7652509808540344 -0.21856999397277832 -0.6054909825325012
          -0.9953920245170593 0.051006000488996506 -0.08120100200176239 -0.9830390214920044 0.13460899889469147 0.12456099689006805
          -0.9916769862174988 -0.08992800116539001 0.0921349972486496 -0.872340977191925 0.0029090000316500664 0.48888900876045227
          0.9767029881477356 -0.16191700100898743 0.1408350020647049 0.7432770133018494 -0.3020339906215668 0.5969200134277344
          -0.28036201000213623 -0.4834100008010864 0.8292840123176575 0.9034479856491089 -0.35627099871635437 -0.2384369969367981
          0.6073430180549622 -0.5674980282783508 -0.5559499859809875 0.041669998317956924 -0.5393099784851074 -0.8410760164260864
          -0.6106780171394348 -0.4612619876861572 -0.6436690092086792 -0.8849279880523682 -0.4166260063648224 -0.20814499258995056
          -0.89860600233078 -0.41698700189590454 0.13649100065231323 -0.7153540253639221 -0.4539400041103363 0.5312309861183167
          -0.1439789980649948 -0.3689750134944916 0.9182189702987671 0.012227999977767467 -0.5054879784584045 0.8627470135688782
          0.887365996837616 -0.41677600145339966 0.19718100130558014 0.6380149722099304 -0.4908919930458069 0.5932639837265015
          0.7978770136833191 -0.5842729806900024 -0.14838099479675293 0.5150480270385742 -0.7735059857368469 -0.36934199929237366
          0.1358110010623932 -0.8135989904403687 -0.5653430223464966 -0.3071120083332062 -0.8041110038757324 -0.5090060234069824
          -0.5933020114898682 -0.7715680003166199 -0.22951099276542664 -0.6552209854125977 -0.7513970136642456 0.07801999896764755
          -0.5201219916343689 -0.7890509963035583 0.3269129991531372 -0.030765000730752945 -0.8418869972229004 0.5387750267982483
          0.7123739719390869 -0.4876669943332672 0.5046820044517517 0.5682479739189148 -0.7559769749641418 0.3249489963054657
          0.8209130167961121 -0.5513299703598022 0.1487870067358017 0.6686149835586548 -0.7375680208206177 -0.09458500146865845
          0.0962430015206337 -0.9921910166740417 -0.07933100312948227 0.7032099962234497 -0.70899498462677 0.053119998425245285
          <InformationKey name="L2_NORM_RANGE" location="vtkDataArray" length="2">
            <Value index="0">
              0.99999929494
            </Value>
            <Value index="1">
              1.0000006179
            </Value>
          </InformationKey>
        </DataArray>
      </PointData>
      <CellData>
      </CellData>
      <Points>
        <DataArray type="Float32" Name="Points" NumberOfComponents="3" format="ascii" RangeMin="0" RangeMax="0.05291999876499176">
          0.005481999833136797 0.0491270013153553 -0.007546000182628632 0 0.05027399957180023 -0.012600000016391277
          0 0.05291999876499176 0 0.01014699973165989 0.04436499997973442 -0.013965999707579613
          0 0.044982001185417175 -0.021764000877738 0.005758000072091818 0.04797999933362007 -0.0018710000440478325
          -0.004954000003635883 0.050978999584913254 -0.006818000227212906 -0.007934999652206898 0.04339500144124031 -0.01092199981212616
          0.005758000072091818 0.04797999933362007 0.0018710000440478325 0.0038950000889599323 0.04974399879574776 0.005361999850720167
          0 0.05150900036096573 0.007199999876320362 -0.003367000026628375 0.05159600079059601 0.004633000120520592
          -0.004046000074595213 0.05168500170111656 0.0013150000013411045 -0.004046000074595213 0.05168500170111656 -0.0013150000013411045
          0.012138999998569489 0.04374700039625168 -0.003944000229239464 0.012023000046610832 0.03395700082182884 -0.016548000276088715
          0 0.035280000418424606 -0.024708999320864677 -0.008175999857485294 0.03501499816775322 -0.011253000237047672
          -0.004980999976396561 0.04180699959397316 -0.001617999980226159 -0.002956999931484461 0.03475100174546242 -0.0009609999833628535
          0.012138999998569489 0.04374700039625168 0.003944000229239464 0.008992999792098999 0.04656900092959404 0.012377999722957611
          0 0.04939199984073639 0.01783600077033043 -0.006781000178307295 0.04559899866580963 0.009332999587059021
          -0.004980999976396561 0.04180699959397316 0.001617999980226159 0.015406999737024307 0.03263400122523308 -0.005005999933928251
          0.011013000272214413 0.023814000189304352 -0.015158000402152538 0 0.023814000189304352 -0.021436000242829323
          -0.00735800014808774 0.0255769994109869 -0.010127999819815159 -0.00342399999499321 0.027341999113559723 -0.0011119999689981341
          -0.002956999931484461 0.03475100174546242 0.0009609999833628535 -0.00342399999499321 0.027341999113559723 0.0011119999689981341
          0.015406999737024307 0.03263400122523308 0.005005999933928251 0.012600000016391277 0.03492699936032295 0.017342999577522278
          0 0.037220001220703125 0.026673000305891037 -0.008751999586820602 0.035985998809337616 0.012047000229358673
          0.01525100041180849 0.023814000189304352 -0.004954999778419733 0.008511999621987343 0.016493000090122223 -0.01171599980443716
          0 0.018345000222325325 -0.015545999631285667 -0.00788700021803379 0.015434999950230122 -0.010855999775230885
          -0.010738000273704529 0.012524000369012356 -0.0034890000242739916 -0.010738000273704529 0.012524000369012356 0.0034890000242739916
          -0.007934999652206898 0.025225000455975533 0.01092199981212616 -0.008464000187814236 0.015170999802649021 0.011649999767541885
          0.01525100041180849 0.023814000189304352 0.004954999778419733 0.011590000241994858 0.02346000075340271 0.015953000634908676
          0 0.02310900017619133 0.023399999365210533 0.012760999612510204 0.01464099995791912 -0.004145999904721975
          0.006924999877810478 0.00873200036585331 -0.009530999697744846 0 0.00864300038665533 -0.013418000191450119
          -0.006924999877810478 0.007937000133097172 -0.009530999697744846 -0.009649000130593777 0.00723200011998415 -0.0031349998898804188
          -0.009649000130593777 0.00723200011998415 0.0031349998898804188 -0.007550999987870455 0.007761000189930201 0.01039199996739626
          0 0.017815999686717987 0.01750900037586689 0 0.008290999568998814 0.015545999631285667
          0.012760999612510204 0.01464099995791912 0.004145999904721975 0.009088999591767788 0.016228999942541122 0.012511000037193298
          0.009649000130593777 0.008820000104606152 -0.0031349998898804188 0.003990999888628721 0.003969000186771154 -0.005495000164955854
          0 0.0042329998686909676 -0.008182000368833542 -0.004424000158905983 0.003616000059992075 -0.006089000031352043
          -0.006535999942570925 0.0029990000184625387 -0.002124000107869506 -0.006535999942570925 0.0029990000184625387 0.002124000107869506
          -0.0050490000285208225 0.0030869999900460243 0.006949999835342169 0 0.0031739999540150166 0.010308999568223953
          0.007550999987870455 0.008555999957025051 0.01039199996739626 0.004616999998688698 0.00343999988399446 0.00635500019416213
          0.009649000130593777 0.008820000104606152 0.0031349998898804188 0.005135000217705965 0.003705000039190054 -0.0016690000193193555
          0 0 0 0.005135000217705965 0.003705000039190054 0.0016690000193193555
          <InformationKey name="L2_NORM_RANGE" location="vtkDataArray" length="2">
            <Value index="0">
              0
            </Value>
            <Value index="1">
              0.052919998765
            </Value>
          </InformationKey>
        </DataArray>
      </Points>
      <Verts>
        <DataArray type="Int64" Name="connectivity" format="ascii" RangeMin="1e+299" RangeMax="-1e+299">
        </DataArray>
        <DataArray type="Int64" Name="offsets" format="ascii" RangeMin="1e+299" RangeMax="-1e+299">
        </DataArray>
      </Verts>
      <Lines>
        <DataArray type="Int64" Name="connectivity" format="ascii" RangeMin="1e+299" RangeMax="-1e+299">
        </DataArray>
        <DataArray type="Int64" Name="offsets" format="ascii" RangeMin="1e+299" RangeMax="-1e+299">
        </DataArray>
      </Lines>
      <Strips>
        <DataArray type="Int64" Name="connectivity" format="ascii" RangeMin="1e+299" RangeMax="-1e+299">
        </DataArray>
        <DataArray type="Int64" Name="offsets" format="ascii" RangeMin="1e+299" RangeMax="-1e+299">
        </DataArray>
      </Strips>
      <Polys>
        <DataArray type="Int32" Name="connectivity" format="ascii" RangeMin="0" RangeMax="71">
          0 1 2 0 3 4
          0 4 1 5 0 2
          5 3 0 1 6 2
          1 4 7 1 7 6
          8 5 2 9 8 2
          10 9 2 11 10 2
          12 11 2 13 12 2
          6 13 2 5 14 3
          3 15 16 3 16 4
          14 15 3 4 16 17
          4 17 7 8 14 5
          6 7 18 6 18 13
          7 17 19 7 19 18
          8 20 14 9 20 8
          9 21 20 10 21 9
          10 22 21 11 22 10
          11 23 22 12 23 11
          12 24 23 13 24 12
          13 18 24 14 25 15
          20 25 14 15 26 27
          15 27 16 25 26 15
          16 27 28 16 28 17
          17 28 29 17 29 19
          18 19 30 18 30 24
          19 29 31 19 31 30
          20 32 25 21 32 20
          21 33 32 22 33 21
          22 34 33 23 34 22
          23 35 34 24 35 23
          24 30 35 25 36 26
          32 36 25 26 37 38
          26 38 27 36 37 26
          27 38 39 27 39 28
          28 39 40 28 40 29
          29 40 41 29 41 31
          30 31 42 30 42 35
          31 41 43 31 43 42
          32 44 36 33 44 32
          33 45 44 34 45 33
          34 46 45 35 46 34
          35 42 46 36 47 37
          44 47 36 37 48 49
          37 49 38 47 48 37
          38 49 50 38 50 39
          39 50 51 39 51 40
          40 51 52 40 52 41
          41 52 53 41 53 43
          42 43 54 42 54 46
          43 53 55 43 55 54
          44 56 47 45 56 44
          45 57 56 46 57 45
          46 54 57 47 58 48
          56 58 47 48 59 60
          48 60 49 58 59 48
          49 60 61 49 61 50
          50 61 62 50 62 51
          51 62 63 51 63 52
          52 63 64 52 64 53
          53 64 65 53 65 55
          54 55 66 54 66 57
          55 65 67 55 67 66
          56 68 58 57 68 56
          57 66 68 58 69 59
          68 69 58 59 70 60
          69 70 59 60 70 61
          61 70 62 62 70 63
          63 70 64 64 70 65
          65 70 67 66 67 71
          66 71 68 67 70 71
          68 71 69 71 70 69
        </DataArray>
        <DataArray type="Int32" Name="offsets" format="ascii" RangeMin="3" RangeMax="420">
          3 6 9 12 15 18
          21 24 27 30 33 36
          39 42 45 48 51 54
          57 60 63 66 69 72
          75 78 81 84 87 90
          93 96 99 102 105 108
          111 114 117 120 123 126
          129 132 135 138 141 144
          147 150 153 156 159 162
          165 168 171 174 177 180
          183 186 189 192 195 198
          201 204 207 210 213 216
          219 222 225 228 231 234
          237 240 243 246 249 252
          255 258 261 264 267 270
          273 276 279 282 285 288
          291 294 297 300 303 306
          309 312 315 318 321 324
          327 330 333 336 339 342
          345 348 351 354 357 360
          363 366 369 372 375 378
          381 384 387 390 393 396
          399 402 405 408 411 414
          417 420
        </DataArray>
      </Polys>
    </Piece>
  </PolyData>
</VTKFile>
