<?xml version="1.0"?>
<VTKFile type="PolyData" version="0.1" byte_order="LittleEndian" header_type="UInt32" compressor="vtkZLibDataCompressor">
  <PolyData>
    <Piece NumberOfPoints="125" NumberOfVerts="0" NumberOfLines="0" NumberOfStrips="0" NumberOfPolys="242">
      <PointData Normals="Normals">
        <DataArray type="Float32" Name="Normals" NumberOfComponents="3" format="ascii" RangeMin="0.9999994575947796" RangeMax="1.0000006534076158">
          -0.267536997795105 -0.6007310152053833 0.7533569931983948 -0.3540230095386505 -0.10492700338363647 0.9293320178985596
          -0.17932400107383728 0.26663199067115784 0.9469689726829529 -0.7613509893417358 -0.5882250070571899 0.2726469933986664
          -0.6371549963951111 -0.4717159867286682 0.6095229983329773 -0.4350399971008301 -0.8194090127944946 0.3732430040836334
          0.9024739861488342 -0.10589200258255005 0.4175249934196472 0.9792600274085999 -0.15669000148773193 0.12844599783420563
          0.10298900306224823 -0.9901869893074036 0.09446000307798386 0.3109149932861328 0.21517600119113922 0.9257599711418152
          -0.24211999773979187 -0.45597898960113525 0.856423020362854 0.06675499677658081 -0.19842900335788727 0.9778389930725098
          0.4614369869232178 0.5107619762420654 0.7253950238227844 0.5379589796066284 -0.6008819937705994 0.5912200212478638
          -0.210330992937088 -0.977590024471283 0.008925000205636024 -0.44244301319122314 -0.8020430207252502 0.4012109935283661
          -0.33420899510383606 -0.6767500042915344 0.6559829711914062 0.08169200271368027 -0.10637100040912628 0.9909650087356567
          0.9282789826393127 -0.3560599982738495 -0.10733100026845932 -0.028317000716924667 -0.10282900184392929 0.9942960143089294
          0.9049810171127319 0.3832300007343292 -0.18477900326251984 0.8423560261726379 0.21514999866485596 -0.4941120147705078
          0.2984449863433838 -0.9322800040245056 0.2044139951467514 0.8741459846496582 -0.08039800077676773 0.4789629876613617
          0.5979620218276978 0.7124410271644592 -0.36724498867988586 -0.5240190029144287 -0.5889700055122375 -0.6152380108833313
          0.004592999815940857 -0.26767000555992126 -0.9635000228881836 0.8361070156097412 0.11347699910402298 0.5367010235786438
          0.3846319913864136 -0.10770100355148315 0.9167649745941162 0.11499500274658203 -0.5735229849815369 0.8110780119895935
          0.010792000219225883 -0.5493320226669312 0.8355349898338318 -0.2708759903907776 -0.652059018611908 0.7081279754638672
          0.8067190051078796 -0.5903469920158386 -0.02636599913239479 0.10453099757432938 -0.9862920045852661 0.12767499685287476
          -0.011921999976038933 -0.8287659883499146 0.5594679713249207 -0.14865699410438538 -0.8349959850311279 0.5297949910163879
          -0.5313230156898499 0.3292039930820465 0.7805899977684021 0.6702150106430054 0.25932401418685913 -0.6953870058059692
          0.5276070237159729 -0.7081639766693115 -0.469184011220932 -0.5023120045661926 -0.21843700110912323 0.8366410136222839
          0.08266700059175491 0.5013329982757568 -0.8612959980964661 0.4729059934616089 0.10885799676179886 -0.8743619918823242
          0.6927639842033386 -0.3011780083179474 -0.6552630066871643 -0.3869769871234894 -0.14640900492668152 -0.9103919863700867
          0.9750019907951355 0.12051299959421158 0.18667300045490265 -0.7649080157279968 0.5704079866409302 -0.29924800992012024
          -0.808007001876831 -0.531387984752655 -0.2544650137424469 -0.3167850077152252 -0.4571389853954315 0.8310670256614685
          0.6760439872741699 -0.6871309876441956 0.26611199975013733 -0.5226770043373108 0.1637360006570816 -0.8366590142250061
          -0.6600019931793213 0.5510690212249756 -0.5106080174446106 -0.7624949812889099 0.5741699934005737 -0.2982099950313568
          0.008816000074148178 0.26801401376724243 -0.9633749723434448 0.6700860261917114 -0.2539849877357483 0.6974779963493347
          0.9119219779968262 -0.37702998518943787 0.16200700402259827 0.05126100033521652 -0.5063949823379517 0.8607770204544067
          0.8002229928970337 -0.5927960276603699 0.09074900299310684 0.36055800318717957 -0.8701059818267822 0.3360249996185303
          0.5583199858665466 -0.7019640207290649 0.4421829879283905 -0.8367319703102112 -0.2045609951019287 0.5079709887504578
          -0.6309109926223755 0.16652999818325043 0.7577729821205139 0.1690559983253479 -0.13222399353981018 0.9766970276832581
          -0.5713139772415161 0.4390450119972229 -0.6934270262718201 0.7165070176124573 0.5510269999504089 0.4277699887752533
          0.1028750017285347 -0.8770179748535156 0.4693149924278259 0.06780999898910522 -0.5151730179786682 0.8543990254402161
          -0.8375750184059143 0.17527399957180023 0.5174430012702942 -0.9658769965171814 0.14281199872493744 -0.2160699963569641
          0.40701499581336975 -0.11767599731683731 -0.9058099985122681 0.6090019941329956 0.17647799849510193 -0.7732869982719421
          0.7993829846382141 0.0027630000840872526 -0.6008149981498718 0.27570998668670654 -0.8323910236358643 0.4807389974594116
          -0.3893429934978485 -0.7452449798583984 0.5413150191307068 -0.6928899884223938 -0.24489900469779968 0.6781799793243408
          -0.5654299855232239 0.010556000284850597 0.8247290253639221 -0.6134060025215149 -0.4941810071468353 0.6160500049591064
          -0.17475999891757965 0.523639976978302 -0.833823025226593 0.442903995513916 0.8016039729118347 -0.4015809893608093
          -0.7598490118980408 0.33230701088905334 -0.5587490200996399 0.4892849922180176 -0.8651570081710815 0.11001700162887573
          -0.6033080220222473 -0.12241700291633606 -0.7880570292472839 0.12269499897956848 0.8492259979248047 0.5135759711265564
          -0.4075759947299957 0.47950300574302673 0.7771480083465576 -0.6776139736175537 0.2975179851055145 0.6725500226020813
          -0.8754240274429321 -0.473345011472702 0.09786500036716461 0.15000300109386444 -0.9382920265197754 0.31161901354789734
          0.06461299955844879 -0.1376110017299652 -0.9883769750595093 0.2117989957332611 0.10339599847793579 -0.9718279838562012
          -0.35253000259399414 -0.839148998260498 0.4141879975795746 0.6646580100059509 0.016411999240517616 -0.7469679713249207
          0.730417013168335 0.47332999110221863 -0.49239200353622437 0.7295460104942322 0.43183600902557373 -0.5303580164909363
          0.746819019317627 0.37946799397468567 -0.5461360216140747 0.9768419861793518 0.21394899487495422 0.0023499999660998583
          -0.23118899762630463 -0.2731969952583313 0.9337639808654785 0.20480599999427795 -0.14780600368976593 0.9675779938697815
          -0.3844529986381531 0.08969400078058243 0.9187769889831543 -0.6393499970436096 0.14480499923229218 0.755158007144928
          -0.3655700087547302 -0.2011999934911728 0.9087780117988586 -0.393667995929718 0.039438001811504364 0.9184070229530334
          -0.4372990131378174 -0.6412990093231201 -0.6304799914360046 -0.05860999971628189 0.11708500236272812 -0.9913910031318665
          0.005119999870657921 -0.11179500073194504 -0.9937180280685425 0.3223249912261963 -0.12805700302124023 -0.9379280209541321
          -0.7595729827880859 -0.18778599798679352 0.6227239966392517 -0.7208589911460876 -0.19362899661064148 0.6654850244522095
          0.5235580205917358 0.07765199989080429 -0.8484439849853516 0.47006601095199585 0.7807360291481018 0.41169100999832153
          -0.06700100004673004 0.8693150281906128 0.4896959960460663 -0.2669059932231903 0.9538969993591309 0.13726699352264404
          0.31398698687553406 0.6513950228691101 -0.6907219886779785 0.7149339914321899 0.5015169978141785 0.487185001373291
          -0.5633689761161804 0.38053399324417114 0.7333549857139587 -0.863398015499115 0.27042001485824585 0.42593100666999817
          -0.6627569794654846 0.7431150078773499 -0.09237899631261826 0.05143500119447708 -0.37915000319480896 -0.9239050149917603
          -0.07489900290966034 -0.1610260009765625 -0.9841039776802063 0.04242200031876564 0.28662100434303284 -0.9571040272712708
          -0.8715370297431946 -0.3432309925556183 0.350165992975235 -0.9326260089874268 -0.18444399535655975 0.31014299392700195
          0.028978999704122543 0.5518919825553894 -0.8334119915962219 -0.30183398723602295 0.9018759727478027 -0.30905699729919434
          -0.6392930150032043 0.4549500048160553 -0.6199390292167664 -0.8928380012512207 0.07693299651145935 -0.4437580108642578
          -0.9288830161094666 -0.34763699769973755 -0.12776699662208557
          <InformationKey name="L2_NORM_RANGE" location="vtkDataArray" length="2">
            <Value index="0">
              0.99999945759
            </Value>
            <Value index="1">
              1.0000006534
            </Value>
          </InformationKey>
        </DataArray>
      </PointData>
      <CellData>
      </CellData>
      <Points>
        <DataArray type="Float32" Name="Points" NumberOfComponents="3" format="ascii" RangeMin="0.07645866152851993" RangeMax="0.17734590799974825">
          -0.04591900110244751 -0.0700170025229454 0.06940799951553345 -0.06241700053215027 -0.06295300275087357 0.05553999915719032
          -0.06244799867272377 -0.07190100103616714 0.057002000510692596 -0.04741299897432327 -0.0508590005338192 0.0811920017004013
          -0.05768200010061264 -0.05388399958610535 0.0645349994301796 -0.04888100177049637 -0.04884200170636177 0.09623400121927261
          -0.04187700152397156 -0.045942001044750214 0.08883299678564072 -0.041829999536275864 -0.06555899977684021 0.06029500067234039
          -0.052737001329660416 -0.07682300359010696 0.05998000130057335 -0.07697699964046478 -0.06699900329113007 0.05576999858021736
          -0.06702599674463272 -0.05392400175333023 0.056784000247716904 -0.07162400335073471 -0.05830100178718567 0.055727001279592514
          -0.08048299700021744 -0.07264400273561478 0.06224900111556053 -0.08474999666213989 -0.08135099709033966 0.070701003074646
          -0.06169800087809563 -0.040081001818180084 0.08911299705505371 -0.061427999287843704 -0.0461059994995594 0.06941100209951401
          -0.06535100191831589 -0.04949000105261803 0.06138300150632858 -0.07133299857378006 -0.042764000594615936 0.10457500070333481
          -0.029562000185251236 -0.031116999685764313 0.09683000296354294 -0.05991600081324577 -0.02758999913930893 0.0989999994635582
          -0.043487001210451126 -0.04759899899363518 0.0647059977054596 -0.04560700058937073 -0.037891000509262085 0.07883299887180328
          -0.03156299889087677 -0.08354999870061874 0.016874000430107117 -0.03627600148320198 -0.07274899631738663 0.03644900023937225
          -0.04335800185799599 -0.05973900109529495 0.04173799976706505 -0.0546410009264946 -0.07442700117826462 0.05175400152802467
          -0.08078800141811371 -0.07560399919748306 0.04991300031542778 -0.08732900023460388 -0.06496699899435043 0.06591200083494186
          -0.07879500091075897 -0.05839800089597702 0.056620001792907715 -0.0757249966263771 -0.050801001489162445 0.05926299840211868
          -0.09478399902582169 -0.07856400310993195 0.0807029977440834 -0.10255700349807739 -0.07941199839115143 0.07167500257492065
          -0.09889800101518631 -0.09076999872922897 0.05012999847531319 -0.07242800295352936 -0.040380001068115234 0.07777100056409836
          -0.08804400265216827 -0.0489329993724823 0.10026100277900696 -0.07020200043916702 -0.04483100026845932 0.06514400243759155
          -0.08815799653530121 -0.031197000294923782 0.09258099645376205 -0.03601500019431114 -0.01819700002670288 0.09512700140476227
          -0.02383499965071678 -0.00930000003427267 0.10686399787664413 -0.06304799765348434 -0.006570000201463699 0.09977000206708908
          -0.059230998158454895 -0.03203999996185303 0.06198599934577942 -0.05893699824810028 -0.031863000243902206 0.06212899833917618
          -0.02506200037896633 -0.07902900129556656 0.002220999915152788 -0.05566300079226494 -0.09783899784088135 -0.00035099999513477087
          -0.02194100059568882 -0.07554099708795547 0.02386699989438057 -0.05560100078582764 -0.06462500244379044 0.037257999181747437
          -0.05262500047683716 -0.06742600351572037 0.04425499960780144 -0.06275700032711029 -0.09050700068473816 0.01924300007522106
          -0.05417700111865997 -0.10202600061893463 0.005630999803543091 -0.0624920018017292 -0.05519000068306923 0.05286100134253502
          -0.12694400548934937 -0.07042799890041351 0.06155899912118912 -0.12535299360752106 -0.05440500006079674 0.052960000932216644
          -0.08937299996614456 -0.030293000862002373 0.06689000129699707 -0.08514200150966644 -0.05386500060558319 0.0602400004863739
          -0.08986199647188187 -0.05421699956059456 0.07283099740743637 -0.09766100347042084 -0.06094000115990639 0.09240300208330154
          -0.0915910005569458 -0.05018499866127968 0.08978500217199326 -0.0776899978518486 -0.04427500069141388 0.06588400155305862
          -0.0845090001821518 -0.04830000177025795 0.06462199985980988 -0.10534399747848511 -0.06381499767303467 0.07554300129413605
          -0.11085499823093414 -0.059932999312877655 0.06760399788618088 -0.11174599826335907 -0.08662399649620056 0.07247799634933472
          -0.13561099767684937 -0.08439700305461884 0.054166000336408615 -0.09630300104618073 -0.10280700027942657 0.04032500088214874
          -0.11430799961090088 -0.11507699638605118 0.05203000083565712 -0.1191909983754158 -0.10148999840021133 0.06947500258684158
          -0.10096900165081024 -0.048285000026226044 0.0840580016374588 -0.0952640026807785 -0.012132000178098679 0.07011999934911728
          -0.08371199667453766 0.01170899998396635 0.06080099940299988 -0.05693899840116501 0.031116999685764313 0.09857600182294846
          0 0 0.11871799826622009 -0.008839000016450882 -0.013895999640226364 0.1217460036277771
          -0.02826699987053871 -0.009664000011980534 0.11259099841117859 -0.04506099969148636 0.04386400058865547 0.12358400225639343
          -0.07751400023698807 0.02703399956226349 0.07983099669218063 -0.10192500054836273 -0.005537999793887138 0.07328999787569046
          -0.04687799885869026 -0.07289200276136398 0.002406999934464693 -0.026301000267267227 -0.07163099944591522 0.004815000109374523
          -0.055378999561071396 -0.08285000175237656 0.0017989999614655972 -0.07277099788188934 -0.11734700202941895 0.02522999979555607
          -0.10671199858188629 -0.11179099977016449 0.03616100177168846 -0.0650470033288002 -0.09588900208473206 0.019015999510884285
          -0.11836200207471848 -0.06669600307941437 0.06776399910449982 -0.1318179965019226 -0.07584399729967117 0.0691239982843399
          -0.13573800027370453 -0.09693100303411484 0.06025899946689606 -0.09212899953126907 -0.12087000161409378 0.035677000880241394
          -0.10435900092124939 0.010080000385642052 0.05077100172638893 -0.09717199951410294 0.024295000359416008 0.05511000007390976
          -0.12025900185108185 -0.006688000168651342 0.06321600079536438 -0.08251599967479706 0.04438000172376633 0.06627599895000458
          -0.06860499829053879 0.09188699722290039 0.08519399911165237 -0.008365999907255173 0.02201000042259693 0.1227789968252182
          -0.02613000012934208 0.04682299867272377 0.12051799893379211 -0.0011840000515803695 0.011483999900519848 0.1277489960193634
          -0.01810700073838234 0.019491000100970268 0.13293500244617462 -0.0010730000212788582 0.011409999802708626 0.12809500098228455
          -0.042118001729249954 0.0512240007519722 0.13258600234985352 -0.06582900136709213 0.08302199840545654 0.1034889966249466
          -0.09758000075817108 0.07212600111961365 0.0717409998178482 -0.12706400454044342 0.04984400048851967 0.06825800240039825
          -0.13033899664878845 -0.000990999978967011 0.05714099854230881 -0.1341399997472763 0.009514999575912952 0.05585600063204765
          -0.1188960000872612 0.02169100008904934 0.059151001274585724 -0.11078300327062607 0.04148799926042557 0.052253998816013336
          -0.1340949982404709 0.010596999898552895 0.05587499961256981 -0.13218900561332703 0.020569000393152237 0.06378500163555145
          -0.0842449963092804 0.06599000096321106 0.05955300107598305 -0.04267499968409538 0.07201399654150009 0.11913999915122986
          -0.0637039989233017 0.08993099629878998 0.10071299970149994 -0.08681000024080276 0.09383200109004974 0.07634499669075012
          -0.08052100241184235 0.08927000313997269 0.07094699889421463 -0.016222000122070312 0.03847299888730049 0.13264499604701996
          -0.10511799901723862 0.08241300284862518 0.07360199838876724 -0.14004500210285187 0.0478379987180233 0.05786899849772453
          -0.1218309998512268 0.07479699701070786 0.061409998685121536 -0.13577699661254883 0.02518099918961525 0.05677900090813637
          -0.13044199347496033 0.03609300032258034 0.043880999088287354 -0.12133000046014786 0.05518599972128868 0.04885299876332283
          -0.1357090026140213 0.025433000177145004 0.056811001151800156 -0.14275600016117096 0.037852998822927475 0.05598900094628334
          -0.09993299841880798 0.08017099648714066 0.05890699848532677 -0.10118400305509567 0.08732900023460388 0.06762400269508362
          -0.13776400685310364 0.05295500159263611 0.051670998334884644 -0.1425669938325882 0.03686000034213066 0.05053799971938133
          -0.14028300344944 0.027056999504566193 0.051667001098394394
          <InformationKey name="L2_NORM_RANGE" location="vtkDataArray" length="2">
            <Value index="0">
              0.076458661529
            </Value>
            <Value index="1">
              0.177345908
            </Value>
          </InformationKey>
        </DataArray>
      </Points>
      <Verts>
        <DataArray type="Int64" Name="connectivity" format="ascii" RangeMin="1e+299" RangeMax="-1e+299">
        </DataArray>
        <DataArray type="Int64" Name="offsets" format="ascii" RangeMin="1e+299" RangeMax="-1e+299">
        </DataArray>
      </Verts>
      <Lines>
        <DataArray type="Int64" Name="connectivity" format="ascii" RangeMin="1e+299" RangeMax="-1e+299">
        </DataArray>
        <DataArray type="Int64" Name="offsets" format="ascii" RangeMin="1e+299" RangeMax="-1e+299">
        </DataArray>
      </Lines>
      <Strips>
        <DataArray type="Int64" Name="connectivity" format="ascii" RangeMin="1e+299" RangeMax="-1e+299">
        </DataArray>
        <DataArray type="Int64" Name="offsets" format="ascii" RangeMin="1e+299" RangeMax="-1e+299">
        </DataArray>
      </Strips>
      <Polys>
        <DataArray type="Int32" Name="connectivity" format="ascii" RangeMin="0" RangeMax="124">
          0 1 2 3 4 0
          0 5 3 0 4 1
          0 6 5 6 0 7
          2 8 0 0 8 7
          2 1 9 10 11 1
          10 1 4 11 9 1
          2 12 13 12 2 9
          14 3 5 15 4 3
          15 3 14 16 10 4
          16 4 15 5 17 14
          6 17 5 18 19 6
          19 17 6 7 20 6
          6 20 21 6 21 18
          22 23 7 7 8 22
          24 20 7 24 7 23
          25 22 8 26 8 13
          25 8 26 9 27 12
          28 27 9 11 28 9
          16 29 10 10 29 11
          11 29 28 12 27 13
          13 27 30 30 31 13
          32 26 13 32 13 31
          33 14 34 33 15 14
          34 14 17 35 16 15
          35 15 33 35 29 16
          36 34 17 19 36 17
          37 18 21 18 37 38
          38 19 18 39 19 38
          36 19 39 21 20 40
          40 20 24 37 21 41
          42 22 43 44 23 22
          45 22 46 46 22 25
          44 22 42 47 48 22
          48 43 22 45 47 22
          24 23 44 45 24 44
          49 24 45 49 40 24
          25 26 49 25 49 46
          26 50 51 52 26 51
          26 32 50 49 26 40
          40 26 52 53 54 27
          28 53 27 27 55 30
          54 56 27 27 56 55
          28 29 53 29 57 58
          57 29 35 53 29 58
          55 59 30 59 31 30
          60 61 31 59 60 31
          61 32 31 62 32 63
          32 62 50 64 32 65
          63 32 64 65 32 61
          56 57 33 33 34 56
          35 33 57 56 34 55
          66 55 34 36 66 34
          36 39 67 66 36 67
          41 68 37 68 69 37
          37 69 38 70 71 38
          38 69 70 38 71 72
          39 38 72 39 72 73
          39 73 74 75 39 74
          39 75 67 67 40 52
          67 68 41 76 77 42
          43 76 42 44 42 77
          76 43 78 43 47 45
          78 43 45 48 79 43
          80 43 79 43 80 81
          47 43 81 45 44 77
          45 76 78 46 49 45
          45 77 76 47 81 48
          81 79 48 82 50 83
          83 50 62 51 50 82
          82 60 51 52 51 67
          60 67 51 58 54 53
          57 54 58 54 57 56
          66 59 55 59 66 60
          82 61 60 66 67 60
          82 83 61 83 65 61
          62 84 83 80 84 62
          80 62 63 81 80 63
          63 64 85 85 79 63
          81 63 79 84 80 64
          84 64 65 64 80 85
          83 84 65 75 68 67
          86 87 68 86 68 88
          88 68 75 69 68 89
          87 89 68 90 69 89
          91 69 92 92 69 90
          91 70 69 93 70 91
          71 70 93 71 94 72
          95 94 71 73 72 94
          96 73 94 97 74 73
          96 97 73 98 99 74
          97 98 74 75 74 99
          88 75 99 80 79 85
          86 88 100 101 86 100
          86 102 87 101 102 86
          87 103 89 87 102 103
          104 88 105 100 88 104
          99 105 88 89 106 90
          103 106 89 107 92 90
          107 90 108 108 90 109
          110 109 90 90 106 110
          93 91 111 111 91 92
          107 111 92 94 95 111
          96 94 111 96 111 107
          97 96 107 97 107 108
          112 97 109 112 98 97
          109 97 108 112 99 98
          113 105 99 114 99 112
          114 113 99 102 101 115
          103 102 116 116 102 115
          103 117 106 116 117 103
          104 105 118 118 105 119
          119 105 113 110 106 120
          120 106 117 109 110 121
          109 121 112 121 110 120
          121 114 112 122 123 113
          122 113 114 113 123 119
          121 120 114 117 122 114
          114 120 117 115 124 116
          116 124 115 124 123 116
          123 122 116 116 122 117
          124 118 119 119 123 124
        </DataArray>
        <DataArray type="Int32" Name="offsets" format="ascii" RangeMin="3" RangeMax="726">
          3 6 9 12 15 18
          21 24 27 30 33 36
          39 42 45 48 51 54
          57 60 63 66 69 72
          75 78 81 84 87 90
          93 96 99 102 105 108
          111 114 117 120 123 126
          129 132 135 138 141 144
          147 150 153 156 159 162
          165 168 171 174 177 180
          183 186 189 192 195 198
          201 204 207 210 213 216
          219 222 225 228 231 234
          237 240 243 246 249 252
          255 258 261 264 267 270
          273 276 279 282 285 288
          291 294 297 300 303 306
          309 312 315 318 321 324
          327 330 333 336 339 342
          345 348 351 354 357 360
          363 366 369 372 375 378
          381 384 387 390 393 396
          399 402 405 408 411 414
          417 420 423 426 429 432
          435 438 441 444 447 450
          453 456 459 462 465 468
          471 474 477 480 483 486
          489 492 495 498 501 504
          507 510 513 516 519 522
          525 528 531 534 537 540
          543 546 549 552 555 558
          561 564 567 570 573 576
          579 582 585 588 591 594
          597 600 603 606 609 612
          615 618 621 624 627 630
          633 636 639 642 645 648
          651 654 657 660 663 666
          669 672 675 678 681 684
          687 690 693 696 699 702
          705 708 711 714 717 720
          723 726
        </DataArray>
      </Polys>
    </Piece>
  </PolyData>
</VTKFile>
