<?xml version="1.0"?>
<VTKFile type="PolyData" version="0.1" byte_order="LittleEndian" header_type="UInt32" compressor="vtkZLibDataCompressor">
  <PolyData>
    <Piece NumberOfPoints="845" NumberOfVerts="0" NumberOfLines="0" NumberOfStrips="0" NumberOfPolys="1690">
      <PointData Normals="Normals">
        <DataArray type="Float32" Name="Normals" NumberOfComponents="3" format="ascii" RangeMin="0.9999993186151875" RangeMax="1.0000007087792697">
          0.4533489942550659 -0.7099320292472839 -0.5389540195465088 0.1581449955701828 -0.8818100094795227 -0.44429799914360046
          0.20075300335884094 -0.7002249956130981 -0.6851159930229187 0.41255098581314087 -0.44370201230049133 -0.7955690026283264
          0.46624499559402466 -0.8418430089950562 -0.2718769907951355 0.7046200037002563 -0.4230180084705353 -0.569707989692688
          0.7112759947776794 -0.6157950162887573 -0.3389430046081543 0.04280000180006027 -0.6428340077400208 -0.7648090124130249
          0.16511300206184387 -0.9834380149841309 -0.07475099712610245 -0.20651699602603912 -0.9380159974098206 -0.2783460021018982
          0.7069339752197266 0.06090100109577179 -0.7046530246734619 0.23545199632644653 -0.19683900475502014 -0.951744019985199
          0.6993780136108398 -0.7082890272140503 -0.09590300172567368 0.5032200217247009 -0.8633660078048706 0.037004001438617706
          0.9206569790840149 -0.10086700320243835 -0.37711700797080994 0.89369797706604 -0.43535399436950684 -0.10849200189113617
          -0.26240798830986023 -0.7502070069313049 -0.6069039702415466 -0.34846800565719604 -0.5441409945487976 -0.7632049918174744
          -0.11513099819421768 -0.32743600010871887 -0.9378330111503601 0.041329000145196915 -0.9871339797973633 -0.15446199476718903
          0.3168550133705139 -0.9473310112953186 -0.046546999365091324 -0.5235369801521301 -0.7033050060272217 -0.48090699315071106
          -0.3351289927959442 -0.9161019921302795 -0.22010500729084015 -0.5274789929389954 -0.8112810254096985 -0.2521669864654541
          -0.09748400002717972 -0.9661039710044861 -0.23903900384902954 0.3242250084877014 -0.020757000893354416 -0.9457520246505737
          0.7585110068321228 0.5347970128059387 -0.3723619878292084 -0.25683900713920593 -0.13010700047016144 -0.9576560258865356
          0.49709200859069824 -0.8277720212936401 -0.26017799973487854 0.4867570102214813 -0.8732630014419556 0.021904999390244484
          0.9691770076751709 0.17763599753379822 -0.1707109957933426 0.7642490267753601 -0.5388879776000977 -0.3542940020561218
          -0.5748019814491272 -0.20768900215625763 -0.791496992111206 -0.645704984664917 -0.49331098794937134 -0.5828459858894348
          0.13919800519943237 -0.912443995475769 -0.3847990036010742 0.3143309950828552 -0.7393839955329895 -0.5954049825668335
          0.38086798787117004 -0.8297179937362671 -0.408053994178772 -0.47636398673057556 -0.6923819780349731 -0.5419260263442993
          -0.31284499168395996 -0.8496840000152588 -0.4244590103626251 0.2911030054092407 -0.7732959985733032 -0.5632690191268921
          0.381633996963501 -0.7200170159339905 -0.5795959830284119 -0.5058259963989258 -0.08702100068330765 -0.8582350015640259
          -0.42246299982070923 -0.4081459939479828 -0.8092849850654602 -0.3029240071773529 -0.7604860067367554 -0.5743680000305176
          0.8491510152816772 0.1710599958896637 -0.4996800124645233 0.7686579823493958 -0.6048089861869812 -0.20825499296188354
          0.24711400270462036 -0.8741509914398193 -0.4180859923362732 0.8813009858131409 0.3133639991283417 -0.35370999574661255
          0.7726269960403442 0.33959901332855225 -0.5363960266113281 0.7193599939346313 0.1418440043926239 -0.6800010204315186
          0.3363659977912903 -0.7847239971160889 -0.5206390023231506 -0.32895100116729736 -0.4810200035572052 -0.8126569986343384
          -0.3635289967060089 -0.6215239763259888 -0.6939420104026794 0.9710059762001038 0.12631699442863464 -0.20295800268650055
          0.142084002494812 -0.709417998790741 -0.6903169751167297 -0.35440000891685486 -0.4198310077190399 -0.835548996925354
          -0.47009700536727905 -0.48829299211502075 -0.7352409958839417 -0.4891529977321625 -0.4341909885406494 -0.756443977355957
          -0.3367530107498169 -0.41534799337387085 -0.8450350165367126 -0.509227991104126 -0.5255619883537292 -0.681522011756897
          0.39656001329421997 -0.6464260220527649 -0.6518229842185974 0.2030239999294281 -0.21988199651241302 -0.9541659951210022
          0.4048379957675934 -0.4543150067329407 -0.7935389876365662 0.3699069917201996 -0.5131800174713135 -0.7744770050048828
          0.1913120001554489 -0.37439799308776855 -0.9073179960250854 0.7110999822616577 -0.4255009889602661 -0.5597190260887146
          0.13560500741004944 -0.531603991985321 -0.8360670208930969 0.5834180116653442 -0.5363199710845947 -0.6099050045013428
          0.8251550197601318 -0.5007069706916809 -0.26155799627304077 -0.4684689939022064 -0.49041101336479187 -0.7348700165748596
          -0.19051000475883484 -0.835453987121582 -0.5154820084571838 -0.006064999848604202 -0.9961879849433899 -0.08702199906110764
          0.5255759954452515 -0.8326830267906189 -0.17438000440597534 0.3357430100440979 -0.871304988861084 -0.357915997505188
          0.47961199283599854 -0.8759769797325134 -0.051339998841285706 0.34085699915885925 -0.9375810027122498 -0.0689850002527237
          0.6205620169639587 -0.7733349800109863 0.129831001162529 0.20285600423812866 -0.9701640009880066 0.13278399407863617
          0.43989598751068115 -0.3503879904747009 -0.8268740177154541 0.7620689868927002 -0.22150899469852448 -0.6084280014038086
          0.6337720155715942 -0.0702499970793724 -0.7703239917755127 0.2734220027923584 -0.5705969929695129 -0.7743769884109497
          -0.17274700105190277 -0.10617200285196304 -0.9792270064353943 -0.2901430130004883 -0.23349200189113617 -0.9280610084533691
          -0.6770830154418945 -0.29326099157333374 -0.6749489903450012 -0.6288610100746155 -0.02799299918115139 -0.7770140171051025
          -0.5504850149154663 -0.5815659761428833 -0.5989540219306946 -0.6252419948577881 -0.28028398752212524 -0.7283639907836914
          -0.6241689920425415 -0.4411869943141937 -0.6448000073432922 -0.5710279941558838 -0.6092569828033447 -0.550212025642395
          -0.44903498888015747 -0.674593985080719 -0.5859090089797974 -0.41274601221084595 -0.6683989763259888 -0.6187760233879089
          0.2081180065870285 -0.5908589959144592 -0.7794700264930725 0.4123679995536804 -0.33412501215934753 -0.8475340008735657
          0.452890008687973 -0.3857179880142212 -0.8038110136985779 -0.18910600244998932 -0.500423014163971 -0.8448759913444519
          -0.07561899721622467 -0.7545260190963745 -0.651898980140686 -0.11440099775791168 -0.847652018070221 -0.5180730223655701
          0.314736008644104 -0.1820790022611618 -0.931551992893219 -0.19920100271701813 0.23662599921226501 -0.9509609937667847
          -0.06639000028371811 0.1857379972934723 -0.9803540110588074 0.08348599821329117 0.07870399951934814 -0.993395984172821
          0.29806798696517944 -0.22756199538707733 -0.9270229935646057 0.5093629956245422 -0.6583669781684875 -0.5541679859161377
          0.11972200125455856 -0.2877010107040405 -0.9502080082893372 0.2151149958372116 -0.43749600648880005 -0.8731110095977783
          0.2377929985523224 -0.3000440001487732 -0.9238119721412659 0.8781830072402954 0.03308599814772606 -0.47717899084091187
          0.9929149746894836 0.022776000201702118 0.11662200093269348 0.9284700155258179 0.35302698612213135 -0.11539699882268906
          0.8157740235328674 -0.4221859872341156 0.39531299471855164 0.649520993232727 -0.7560070157051086 0.08109799772500992
          0.5445389747619629 -0.791903018951416 -0.27634599804878235 0.1759359985589981 -0.9804440140724182 -0.08818300068378448
          0.36547499895095825 -0.6745859980583191 0.6413750052452087 0.35521700978279114 -0.4447309970855713 0.8222129940986633
          0.13499300181865692 -0.9877780079841614 0.07791599631309509 0.11995899677276611 -0.8731380105018616 -0.4724830090999603
          0.2276030033826828 -0.9542930126190186 -0.19370700418949127 -0.22746500372886658 -0.8867629766464233 -0.4023819863796234
          0.7070199847221375 -0.6706299781799316 -0.2244510054588318 0.5860850214958191 -0.7211179733276367 -0.36945000290870667
          0.2467859983444214 -0.10389699786901474 0.963483989238739 0.45807400345802307 -0.1940390020608902 0.8674780130386353
          0.8265470266342163 -0.5360400080680847 0.17170099914073944 -0.14842799305915833 -0.7206770181655884 -0.6771950125694275
          -0.37794598937034607 -0.7092260122299194 -0.5951099991798401 -0.49105700850486755 0.20011000335216522 -0.8478320240974426
          -0.3934420049190521 0.26688799262046814 -0.8797580003738403 -0.5521950125694275 0.10117299854755402 -0.8275539875030518
          -0.6703649759292603 -0.4936870038509369 -0.553970992565155 -0.6530579924583435 -0.4231489896774292 -0.628059983253479
          -0.7187790274620056 -0.38256099820137024 -0.58051997423172 -0.6518110036849976 -0.12512099742889404 -0.7479889988899231
          -0.6189579963684082 -0.6053850054740906 -0.5004000067710876 -0.6586390137672424 -0.5785989761352539 -0.4810590147972107
          -0.8290070295333862 -0.2735069990158081 -0.4877919852733612 -0.7554140090942383 -0.27271100878715515 -0.59579998254776
          -0.6009529829025269 -0.5890589952468872 -0.5402460098266602 -0.46282699704170227 -0.6112880110740662 -0.6419640183448792
          0.7211679816246033 -0.49664801359176636 -0.4829680025577545 0.3365890085697174 -0.8965659737586975 -0.2878830134868622
          0.9305760264396667 -0.019923999905586243 -0.365556001663208 -0.22867800295352936 0.08281300216913223 -0.9699730277061462
          -0.4340670108795166 0.15653499960899353 -0.8871769905090332 -0.030865000560879707 0.03602299839258194 -0.9988740086555481
          0.04070400074124336 -0.14338800311088562 -0.9888290166854858 0.010208000428974628 -0.17358699440956116 -0.9847660064697266
          0.5474990010261536 -0.4447849988937378 -0.7088090181350708 0.4158090054988861 -0.716418981552124 -0.5602200031280518
          0.21752500534057617 -0.4167949855327606 -0.8825899958610535 0.8943949937820435 0.4468950033187866 0.01850299909710884
          0.904371976852417 0.3788619935512543 0.19640499353408813 0.8801699876785278 0.19128599762916565 0.4344080090522766
          0.747534990310669 0.6290029883384705 0.21341699361801147 0.7527269721031189 0.6475189924240112 0.11882899701595306
          0.5244690179824829 -0.851269006729126 0.016553999856114388 0.7393209934234619 0.06027200073003769 0.6706500053405762
          0.6722239851951599 -0.20354099571704865 0.7118189930915833 0.18186500668525696 -0.8187940120697021 0.5445200204849243
          0.06992500275373459 -0.06036999821662903 0.9957240223884583 -0.053989000618457794 0.2018900066614151 0.9779189825057983
          -0.46931201219558716 -0.7872520089149475 -0.3999750018119812 -0.24594800174236298 -0.6948249936103821 -0.675815999507904
          0.5581009984016418 -0.3278709948062897 -0.7622489929199219 0.8127239942550659 -0.4392629861831665 -0.3827899992465973
          0.9734370112419128 -0.22083500027656555 0.0604420006275177 0.872094988822937 -0.3698680102825165 -0.32038700580596924
          -0.1300330013036728 0.27347201108932495 0.9530500173568726 -0.10000699758529663 0.25044000148773193 0.9629529714584351
          0.6002680063247681 -0.00633700005710125 0.7997739911079407 -0.4264949858188629 0.2619999945163727 -0.8657119870185852
          -0.5334659814834595 0.08280199766159058 -0.8417590260505676 -0.7534040212631226 -0.030156999826431274 -0.6568660140037537
          -0.6588559746742249 -0.42685601115226746 -0.6194379925727844 -0.7628679871559143 -0.1501539945602417 -0.6288759708404541
          -0.6491410136222839 -0.15475599467754364 -0.7447599768638611 -0.9818440079689026 0.04566400125622749 -0.18411199748516083
          -0.8414909839630127 -0.20214000344276428 -0.5010309815406799 -0.659400999546051 -0.37845999002456665 -0.6495829820632935
          -0.47376400232315063 -0.48920100927352905 -0.732276976108551 -0.506534993648529 -0.39665600657463074 -0.7655630111694336
          0.07341399788856506 -0.14914199709892273 -0.9860870242118835 0.8674200177192688 -0.4531889855861664 -0.20543299615383148
          0.143886998295784 -0.9887909889221191 0.03986600041389465 0.3548940122127533 -0.9349030256271362 -0.0023560000117868185
          0.9895719885826111 -0.13773499429225922 -0.042148999869823456 0.9069949984550476 0.40610799193382263 0.11151300370693207
          -0.06170399859547615 -0.276078999042511 -0.9591519832611084 -0.4386860132217407 -0.061188001185655594 -0.8965550065040588
          -0.48049798607826233 0.036396000534296036 -0.8762400150299072 0.0228240005671978 -0.2850179970264435 -0.9582499861717224
          0.031481001526117325 -0.36189699172973633 -0.9316859841346741 -0.03811100125312805 -0.3193970024585724 -0.9468539953231812
          0.043726999312639236 -0.46654999256134033 -0.8834139704704285 0.3792409896850586 -0.8057140111923218 -0.4549730122089386
          0.4885439872741699 -0.69336998462677 -0.5296819806098938 0.12121500074863434 -0.4486590027809143 -0.8854439854621887
          0.20293299853801727 0.6504200100898743 0.7319639921188354 0.3338249921798706 0.6600180268287659 0.673005998134613
          0.8405370116233826 0.4739600121974945 0.26241201162338257 0.8059059977531433 0.29887399077415466 0.5110679864883423
          0.6343759894371033 0.7503299713134766 0.1859380006790161 0.42486700415611267 0.6907809972763062 0.5850719809532166
          0.42966699600219727 0.7867869734764099 0.4431169927120209 0.6886889934539795 0.5877159833908081 0.4246140122413635
          0.566444993019104 0.7538939714431763 0.33284199237823486 0.7120100259780884 -0.6921669840812683 0.11809500306844711
          0.7015039920806885 -0.7094200253486633 -0.06793399900197983 0.6211270093917847 0.37413299083709717 0.6886410117149353
          0.4336700141429901 0.3827410042285919 0.8157449960708618 0.4056900143623352 0.3974269926548004 0.8230839967727661
          0.6959670186042786 0.14653299748897552 0.7029629945755005 0.7488639950752258 -0.436942994594574 0.49827998876571655
          0.05547900125384331 -0.9660159945487976 0.25245699286460876 -0.24455299973487854 -0.7238619923591614 0.6451489925384521
          -0.3551099896430969 -0.3166230022907257 0.8795719742774963 -0.3439770042896271 -0.07184100151062012 0.9362260103225708
          -0.29498401284217834 0.02678300067782402 0.9551270008087158 -0.24545499682426453 0.20367999374866486 0.9477689862251282
          -0.138932004570961 0.25933998823165894 0.9557409882545471 0.6304979920387268 -0.08336800336837769 -0.7717009782791138
          0.7668830156326294 -0.38561999797821045 -0.513018012046814 0.6065809726715088 0.3982830047607422 0.6880630254745483
          0.9813460111618042 0.14859700202941895 -0.12197700142860413 0.7412229776382446 -0.30608901381492615 -0.5974090099334717
          0.8735799789428711 -0.29057300090789795 -0.3904170095920563 0.8311430215835571 -0.2333489954471588 -0.5047270059585571
          0.781482994556427 -0.39114299416542053 -0.4860979914665222 0.6137830018997192 -0.39018699526786804 -0.6863120198249817
          -0.1712380051612854 0.16370099782943726 0.9715350270271301 -0.6834509968757629 0.31430500745773315 0.6588680148124695
          -0.48726099729537964 0.5891860127449036 0.6445440053939819 -0.4686160087585449 0.1454250067472458 0.8713499903678894
          0.17105400562286377 0.2565680146217346 0.9512689709663391 -0.09673699736595154 0.20955200493335724 0.9730010032653809
          -0.48968198895454407 -0.034706000238657 0.871209979057312 -0.6159330010414124 -0.05389099940657616 0.7859529852867126
          -0.7160410284996033 0.14922299981117249 0.6819220185279846 -0.1686670035123825 0.32445600628852844 0.9307420253753662
          -0.4790540039539337 -0.04869699850678444 -0.8764330148696899 -0.4816409945487976 -0.14937199652194977 -0.8635450005531311
          -0.45806899666786194 -0.0081599997356534 -0.8888790011405945 -0.28566399216651917 -0.8064600229263306 -0.5177050232887268
          -0.47560998797416687 -0.8531529903411865 -0.2143010050058365 -0.29827600717544556 -0.6679019927978516 -0.6818640232086182
          -0.9515420198440552 -0.30487000942230225 0.04027099907398224 -0.9947320222854614 -0.007216999772936106 -0.10225199908018112
          -0.8023859858512878 -0.058274999260902405 0.593953013420105 -0.8718879818916321 0.16787099838256836 0.46003401279449463
          -0.8582029938697815 -0.024505000561475754 -0.5127249956130981 -0.543084979057312 -0.13623499870300293 -0.8285520076751709
          -0.495961993932724 -0.35486501455307007 -0.7925230264663696 -0.6330270171165466 -0.16233299672603607 -0.7569180130958557
          -0.2498359978199005 0.2604280114173889 -0.9326090216636658 0.22669200599193573 0.26956498622894287 -0.9359189867973328
          0.3880299925804138 0.1349940001964569 -0.9117069840431213 0.7850729823112488 -0.5944809913635254 -0.17393000423908234
          -0.09243600070476532 -0.8688470125198364 -0.48637500405311584 -0.49178001284599304 -0.842041015625 0.22162899374961853
          0.9781370162963867 -0.13072800636291504 -0.1617330014705658 0.47628599405288696 0.7125449776649475 0.5152000188827515
          0.8434569835662842 0.3852759897708893 -0.3743570148944855 0.08822000026702881 -0.5702810287475586 -0.8166990280151367
          -0.1369830071926117 -0.3081899881362915 -0.941411018371582 -0.30747199058532715 -0.039218999445438385 -0.9507480263710022
          0.04891100153326988 -0.37229999899864197 -0.9268230199813843 0.08915600180625916 -0.4139220118522644 -0.9059360027313232
          0.00022499999613501132 -0.36125999689102173 -0.9324650168418884 0.9060350060462952 -0.39765799045562744 0.1448020040988922
          0.41043001413345337 -0.5985730290412903 -0.6879370212554932 0.09820199757814407 -0.47291800379753113 -0.8756170272827148
          -0.2317570000886917 0.6086199879646301 0.7588610053062439 -0.5228710174560547 0.39554399251937866 0.7550830245018005
          -0.6767110228538513 0.49971601366996765 0.5406910181045532 0.07373800128698349 0.4472329914569855 0.8913729786872864
          -0.2637439966201782 0.35896700620651245 0.8953109979629517 0.018929999321699142 0.39820000529289246 0.9171029925346375
          0.0595409981906414 0.38133400678634644 0.9225180149078369 0.4991050064563751 0.5001649856567383 0.7076219916343689
          0.5845749974250793 0.5720000267028809 0.575402021408081 0.19209499657154083 0.5100759863853455 0.8384050130844116
          0.4418469965457916 0.46439799666404724 0.7675319910049438 0.7238889932632446 0.41273999214172363 0.5528389811515808
          0.8387060165405273 0.2798599898815155 0.4671739935874939 -0.7660049796104431 -0.44024598598480225 0.4684230089187622
          -0.509306013584137 -0.09405399858951569 0.855430006980896 -0.38597598671913147 0.11226899921894073 0.9156519770622253
          -0.2660990059375763 0.27558401226997375 0.9237130284309387 -0.1315390020608902 0.2819159924983978 0.9503790140151978
          0.375557005405426 -0.3213230073451996 -0.8693150281906128 0.19881300628185272 -0.09545200318098068 -0.9753779768943787
          -0.1241530030965805 0.5022600293159485 0.855758011341095 0.4036310017108917 0.7511579990386963 0.5223439931869507
          0.6659839749336243 -0.3649919927120209 -0.6505730152130127 0.7730709910392761 0.39553898572921753 -0.4958930015563965
          0.8573499917984009 -0.24491600692272186 -0.45273399353027344 0.6976810097694397 -0.4032309949398041 -0.592153012752533
          0.4534370005130768 -0.7203059792518616 -0.5249329805374146 0.15334999561309814 -0.6088299751281738 -0.7783380150794983
          0.2716050148010254 -0.05692699924111366 -0.9607239961624146 0.07815299928188324 -0.34858500957489014 -0.9340130090713501
          0.19327400624752045 -0.25151699781417847 -0.9483590126037598 0.8241810202598572 -0.24954700469970703 -0.5083820223808289
          0.71669602394104 -0.3370850086212158 -0.6105089783668518 0.6600279808044434 -0.5292059779167175 -0.5332019925117493
          -0.30448898673057556 -0.35095998644828796 0.8855019807815552 0.083746999502182 -0.078964002430439 0.9933540225028992
          -0.9523900151252747 0.3047749996185303 -0.008061000145971775 -0.9596049785614014 0.19417500495910645 0.20360100269317627
          -0.8089709877967834 0.562279999256134 -0.17148900032043457 -0.20719900727272034 0.6846780180931091 0.698773980140686
          -0.5227829813957214 -0.1764419972896576 0.8340060114860535 -0.2532559931278229 0.009397000074386597 0.9673539996147156
          -0.24233700335025787 0.3753269910812378 0.8946520090103149 -0.22075200080871582 0.16932900249958038 0.960519015789032
          0.26169100403785706 -0.4620490074157715 0.8473659753799438 -0.08070500195026398 0.19308799505233765 0.9778569936752319
          -0.11924800276756287 0.23252500593662262 0.9652519822120667 -0.5396850109100342 -0.4123130142688751 0.7339879870414734
          -0.7251780033111572 -0.2978689968585968 0.6207990050315857 -0.8077660202980042 0.06604699790477753 0.5857920050621033
          -0.8554869890213013 0.16314800083637238 0.49145299196243286 -0.7996190190315247 0.42073899507522583 0.42847201228141785
          -0.46398600935935974 0.49683400988578796 0.7333980202674866 -0.6101539731025696 0.25854501128196716 0.7489110231399536
          -0.4019170105457306 -0.2962520122528076 -0.866428017616272 -0.5535359978675842 -0.2565949857234955 -0.7923110127449036
          -0.563040018081665 -0.12703800201416016 -0.8166069984436035 -0.2863689959049225 -0.3311940133571625 -0.8990569710731506
          -0.5125430226325989 0.038621000945568085 -0.8577929735183716 -0.015250000171363354 -0.8116300106048584 -0.5839729905128479
          0.08525200188159943 -0.9826350212097168 -0.16480399668216705 -0.6592569947242737 -0.4256179928779602 0.619862973690033
          -0.2962000072002411 -0.8542479872703552 0.42723000049591064 -0.8682379722595215 0.13468299806118011 -0.4775170087814331
          -0.7699199914932251 -0.03833699971437454 -0.6369879841804504 -0.7433570027351379 0.36698898673057556 -0.5592309832572937
          -0.8048970103263855 -0.008565999567508698 -0.5933520197868347 -0.6888740062713623 -0.31238698959350586 -0.6541159749031067
          -0.5841860175132751 -0.2886190116405487 -0.7585679888725281 -0.22565899789333344 0.24844299256801605 -0.9419950246810913
          0.39912599325180054 -0.6317750215530396 -0.6644989848136902 0.8099269866943359 -0.23594799637794495 -0.5369790196418762
          -0.7338320016860962 -0.6202250123023987 -0.2771480083465576 0.20070099830627441 -0.6029289960861206 -0.7721369862556458
          0.2561019957065582 -0.6718530058860779 -0.6949999928474426 -0.18916599452495575 -0.5677419900894165 -0.8011770248413086
          -0.42935898900032043 -0.6247789859771729 -0.6521520018577576 0.356471985578537 0.8532900214195251 0.3805580139160156
          0.5027089715003967 -0.21715199947357178 -0.8367369771003723 0.6258929967880249 0.5663260221481323 -0.5362200140953064
          -0.40559399127960205 -0.43360498547554016 -0.8046619892120361 0.26466798782348633 -0.6142110228538513 -0.7434350252151489
          0.758433997631073 -0.26144498586654663 -0.597012996673584 0.7003899812698364 -0.36131399869918823 -0.6155539751052856
          0.9892330169677734 0.11601900309324265 0.08920899778604507 -0.18573400378227234 0.7283170223236084 0.6595889925956726
          -0.368135005235672 0.5624570250511169 0.7403500080108643 -0.7695379853248596 -0.2694869935512543 -0.5789549946784973
          -0.9466789960861206 -0.13370899856090546 0.29312199354171753 -0.5234630107879639 0.1435299962759018 0.8398720026016235
          -0.36099401116371155 0.33284199237823486 0.8711479902267456 -0.9757890105247498 0.18248200416564941 -0.12056799978017807
          -0.5055980086326599 0.6276320219039917 0.5919870138168335 -0.9527279734611511 0.3008809983730316 0.042197998613119125
          -0.22208300232887268 0.30006200075149536 0.9277080297470093 -0.25311100482940674 0.35094401240348816 0.9015390276908875
          0.00938200019299984 -0.26183900237083435 0.9650660157203674 0.44344601035118103 0.22748300433158875 0.8669530153274536
          0.4821699857711792 0.3742539882659912 0.7921149730682373 0.6471430063247681 0.27447500824928284 0.7112450003623962
          0.5803670287132263 0.28283700346946716 0.7636600136756897 0.7805820107460022 0.10908299684524536 0.615460991859436
          0.6671169996261597 0.3188979923725128 0.6732460260391235 0.7699379920959473 -0.5955920219421387 0.22905300557613373
          0.9760469794273376 -0.08095599710941315 0.20193800330162048 0.9509519934654236 0.10290300101041794 0.2917200028896332
          0.5242130160331726 0.37565600872039795 0.7642539739608765 0.9702200293540955 -0.17136700451374054 -0.17118899524211884
          -0.7857739925384521 -0.5441970229148865 -0.293953001499176 -0.3118099868297577 0.29591798782348633 0.9028880000114441
          -0.04190799966454506 -0.2859649956226349 -0.9573230147361755 -0.42868998646736145 0.46093499660491943 0.7770230174064636
          0.1915230005979538 0.9632350206375122 0.18840600550174713 -0.11194899678230286 0.6727709770202637 0.731332004070282
          0.4547480046749115 -0.47055700421333313 -0.7561609745025635 0.5098670125007629 -0.49649301171302795 -0.7025169730186462
          0.580672025680542 0.06717000156641006 -0.8113620281219482 0.7734289765357971 -0.18875299394130707 -0.6051279902458191
          0.6028569936752319 -0.2602039873600006 -0.7542269825935364 0.14443400502204895 -0.9484270215034485 -0.28217899799346924
          0.7281389832496643 -0.17765699326992035 -0.6620060205459595 0.6253849864006042 -0.10701999813318253 -0.7729430198669434
          -0.09701400250196457 -0.9577959775924683 0.27058398723602295 0.2050279974937439 -0.9399759769439697 -0.2727789878845215
          -0.1860159933567047 -0.9155290126800537 -0.3566589951515198 0.6800209879875183 -0.03901499882340431 -0.7321540117263794
          -0.2510699927806854 -0.7831190228462219 -0.5689359903335571 -0.5703719854354858 -0.5503489971160889 -0.6097480058670044
          -0.328343003988266 -0.19589200615882874 -0.9240220189094543 -0.6340389847755432 0.14134299755096436 -0.7602739930152893
          -0.7021260261535645 0.1063700020313263 -0.7040629982948303 0.5772870182991028 -0.29089200496673584 -0.7629690170288086
          0.12715600430965424 -0.46587100625038147 0.875669002532959 -0.27300500869750977 -0.7998489737510681 0.5345180034637451
          0.0007229999755509198 -0.8856459856033325 0.4643610119819641 -0.5069680213928223 0.7013480067253113 0.5010929703712463
          -0.8451709747314453 0.4596959948539734 -0.2727000117301941 -0.8273800015449524 0.13912400603294373 -0.54413902759552
          -0.3476240038871765 -0.44565901160240173 0.8249520063400269 -0.8582670092582703 0.3985309898853302 0.32334399223327637
          -0.9332360029220581 -0.07309500128030777 0.351749986410141 -0.8782230019569397 -0.030067000538110733 0.47730499505996704
          -0.7566189765930176 -0.09501100331544876 0.6469169855117798 -0.3636380136013031 -0.4356290102005005 0.8234050273895264
          -0.3112640082836151 -0.8525320291519165 0.4198850095272064 -0.5689370036125183 -0.5641700029373169 0.5983499884605408
          -0.9987249970436096 0.008337000384926796 0.04978499934077263 -0.7292529940605164 -0.6636099815368652 0.16676799952983856
          -0.8677039742469788 0.05880599841475487 0.49358999729156494 -0.9520800113677979 0.2553179860115051 0.16839399933815002
          -0.7096700072288513 0.2095469981431961 0.6726509928703308 -0.6266070008277893 0.21797899901866913 0.7482309937477112
          -0.4910520017147064 -0.4048070013523102 -0.7713620066642761 -0.49750301241874695 -0.47405800223350525 -0.7264710068702698
          -0.6572049856185913 -0.26612401008605957 -0.7051669955253601 -0.531112015247345 -0.012675000354647636 -0.8472070097923279
          -0.6501659750938416 -0.19819000363349915 -0.7334880232810974 0.179190993309021 -0.681984007358551 -0.7090759873390198
          -0.18973499536514282 -0.8319939970970154 -0.5213310122489929 -0.47206801176071167 -0.1991479992866516 -0.8587729930877686
          0.16548900306224823 -0.9119899868965149 -0.3753510117530823 -0.5372059941291809 0.1117670014500618 -0.8360130190849304
          0.17254799604415894 -0.9819499850273132 0.07746999710798264 0.00455200020223856 -0.887516975402832 0.4607529938220978
          -0.7814649939537048 -0.2205059975385666 -0.5836859941482544 -0.9249590039253235 -0.18592500686645508 -0.3314869999885559
          -0.8643890023231506 -0.3500789999961853 -0.36093899607658386 -0.6735460162162781 -0.62807697057724 -0.3896859884262085
          0.20010599493980408 -0.6295170187950134 -0.750777006149292 0.24219399690628052 -0.43835100531578064 -0.8655580282211304
          0.36726999282836914 -0.6161919832229614 -0.6967210173606873 0.377252995967865 -0.5175269842147827 -0.7680140137672424
          0.32862401008605957 -0.635860025882721 -0.6983469724655151 0.2920120060443878 -0.6605160236358643 -0.6916990280151367
          0.20908699929714203 -0.6914119720458984 -0.6915429830551147 -0.6968899965286255 -0.47930601239204407 -0.5334889888763428
          0.46639499068260193 0.8656539916992188 0.181985005736351 0.17506100237369537 0.9178410172462463 0.35625898838043213
          0.4932669997215271 -0.12447100132703781 -0.8609269857406616 0.6525800228118896 0.7044540047645569 -0.2790769934654236
          -0.48491600155830383 -0.7475910186767578 -0.45383399724960327 -0.6628829836845398 -0.4878300130367279 -0.567986011505127
          -0.6133900284767151 -0.33044201135635376 -0.7173290252685547 -0.5606210231781006 -0.473702996969223 -0.6791980266571045