<?xml version="1.0"?>
<VTKFile type="PolyData" version="0.1" byte_order="LittleEndian" header_type="UInt32" compressor="vtkZLibDataCompressor">
  <PolyData>
    <Piece NumberOfPoints="845" NumberOfVerts="0" NumberOfLines="0" NumberOfStrips="0" NumberOfPolys="1690">
      <PointData Normals="Normals">
        <DataArray type="Float32" Name="Normals" NumberOfComponents="3" format="ascii" RangeMin="0.9999992952444167" RangeMax="1.000000695197917">
          0.0380919985473156 -0.7274379730224609 -0.6851159930229187 -0.04427200183272362 -0.8947839736938477 -0.44429799914360046
          0.28202900290489197 -0.7937179803848267 -0.5389540195465088 0.3021659851074219 -0.5251330137252808 -0.7955690026283264
          -0.10290300101041794 -0.6359859704971313 -0.7648090124130249 0.26492100954055786 -0.9251480102539062 -0.2718769907951355
          -0.41223201155662537 -0.8675190210342407 -0.2783460021018982 -0.06034399941563606 -0.9953749775886536 -0.07475099712610245
          0.591401994228363 -0.5706809759140015 -0.569707989692688 0.5545219779014587 -0.7600150108337402 -0.3389430046081543
          0.18513800203800201 -0.2447589933872223 -0.951744019985199 0.7025150060653687 -0.09968599677085876 -0.7046530246734619
          -0.42444300651550293 -0.6719499826431274 -0.6069039702415466 -0.46194198727607727 -0.4518060088157654 -0.7632049918174744
          -0.1858370006084442 -0.29314500093460083 -0.9378330111503601 0.5221220254898071 -0.8474609851837158 -0.09590300172567368
          0.2961080074310303 -0.9544379711151123 0.037004001438617706 -0.6683269739151001 -0.5675089955329895 -0.48090699315071106
          -0.6964579820632935 -0.6718310117721558 -0.2521669864654541 -0.53261798620224 -0.8172339797019958 -0.22010500729084015
          -0.18178699910640717 -0.9711310267448425 -0.15446199476718903 -0.3123120069503784 -0.9194139838218689 -0.23903900384902954
          0.09563100337982178 -0.9943280220031738 -0.046546999365091324 0.8743699789047241 -0.3053840100765228 -0.37711700797080994
          0.7728589773178101 -0.6252340078353882 -0.10849200189113617 0.31124600768089294 -0.0931600034236908 -0.9457520246505737
          -0.2795239984989166 -0.06899599730968475 -0.9576560258865356 0.8593729734420776 0.3504619896411896 -0.3723619878292084
          -0.6067900061607361 -0.07306300103664398 -0.791496992111206 -0.7401260137557983 -0.3354159891605377 -0.5828459858894348
          0.2981429994106293 -0.9183779954910278 -0.26017799973487854 0.2778399884700775 -0.9603779911994934 0.021904999390244484
          -0.619907021522522 -0.5674780011177063 -0.5419260263442993 -0.495963990688324 -0.757532000541687 -0.4244590103626251
          0.10968799889087677 -0.8189610242843628 -0.5632690191268921 -0.06962499767541885 -0.9203709959983826 -0.3847990036010742
          0.1399500072002411 -0.791143000125885 -0.5954049825668335 0.20988400280475616 -0.7874119877815247 -0.5795959830284119
          0.18446099758148193 -0.8941289782524109 -0.408053994178772 0.9842960238456726 -0.044934000819921494 -0.1707109957933426
          0.6234380006790161 -0.6969940066337585 -0.3542940020561218 -0.5124379992485046 0.028996000066399574 -0.8582350015640259
          -0.4662320017814636 -0.672851026058197 -0.5743680000305176 -0.5034480094909668 -0.3026520013809204 -0.8092849850654602
          0.8658679723739624 -0.024342000484466553 -0.4996800124645233 0.04413999989628792 -0.9073349833488464 -0.4180859923362732
          0.6129050254821777 -0.7622190117835999 -0.20825499296188354 0.8292179703712463 0.15709200501441956 -0.5363960266113281
          0.9292050004005432 0.10708300024271011 -0.35370999574661255 0.7328310012817383 -0.023612000048160553 -0.6800010204315186
          -0.4397589862346649 -0.32934799790382385 -0.835548996925354 -0.5678899884223938 -0.3700290024280548 -0.7352409958839417
          -0.574288010597229 -0.3130269944667816 -0.756443977355957 -0.4215550124645233 -0.3289490044116974 -0.8450350165367126
          -0.6144019961357117 -0.39754000306129456 -0.681522011756897 0.15122100710868835 -0.8402780294418335 -0.5206390023231506
          -0.4287259876728058 -0.3946940004825592 -0.8126569986343384 -0.49402400851249695 -0.5238180160522461 -0.6939420104026794
          0.5971580147743225 -0.5745580196380615 -0.5597190260887146 0.012543999589979649 -0.5484840273857117 -0.8360670208930969
          0.4478189945220947 -0.653814971446991 -0.6099050045013428 0.6913719773292542 -0.6734930276870728 -0.26155799627304077
          0.24098199605941772 -0.7190650105476379 -0.6518229842185974 0.292263001203537 -0.5337389707565308 -0.7935389876365662
          0.14835800230503082 -0.2599169909954071 -0.9541659951210022 0.24498499929904938 -0.5832380056381226 -0.7744770050048828
          0.10218799859285355 -0.40783798694610596 -0.9073179960250854 0.9745339751243591 -0.09534899890422821 -0.20295800268650055
          -0.02114200033247471 -0.7231979966163635 -0.6903169751167297 -0.5667799711227417 -0.3724589943885803 -0.7348700165748596
          -0.3735629916191101 -0.7711870074272156 -0.5154820084571838 -0.2300029993057251 -0.9692909717559814 -0.08702199906110764
          0.3247930109500885 -0.9295709729194641 -0.17438000440597534 0.13113699853420258 -0.9244999885559082 -0.357915997505188
          -0.020583000034093857 -0.99093097448349 0.13278399407863617 0.4306949973106384 -0.8931099772453308 0.129831001162529
          0.2702679932117462 -0.9614149928092957 -0.051339998841285706 0.12121099978685379 -0.9902269840240479 -0.0689850002527237
          0.6017249822616577 -0.21101699769496918 -0.7703239917755127 0.3498010039329529 -0.44036298990249634 -0.8268740177154541
          0.6927080154418945 -0.38725998997688293 -0.6084280014038086 0.13805699348449707 -0.6174799799919128 -0.7743769884109497
          0.06986899673938751 -0.622530996799469 -0.7794700264930725 0.3545149862766266 -0.4777100086212158 -0.8038110136985779
          0.32663699984550476 -0.41832399368286133 -0.8475340008735657 -0.2968299984931946 -0.4450579881668091 -0.8448759913444519
          -0.3021480143070221 -0.8001919984817505 -0.5180730223655701 -0.24341300129890442 -0.7181770205497742 -0.651898980140686
          -0.19220300018787384 -0.06459099799394608 -0.9792270064353943 -0.3352310061454773 -0.16223999857902527 -0.9280610084533691
          -0.7256990075111389 -0.133433997631073 -0.6749489903450012 -0.6190400123596191 0.11418800055980682 -0.7770140171051025
          -0.6672009825706482 -0.4428290128707886 -0.5989540219306946 -0.6722670197486877 -0.13245199620723724 -0.7283639907836914
          -0.7074170112609863 -0.2894720137119293 -0.6448000073432922 0.8631179928779602 -0.16530999541282654 -0.47717899084091187
          0.9725900292396545 -0.20116500556468964 0.11662200093269348 0.9840869903564453 0.1351190060377121 -0.11539699882268906
          0.3482080101966858 -0.7560750246047974 -0.5541679859161377 0.4628089964389801 -0.8827409744262695 0.08109799772500992
          0.6998940110206604 -0.5948749780654907 0.39531299471855164 0.35244399309158325 -0.8941010236740112 -0.27634599804878235
          0.23923799395561218 -0.28878000378608704 -0.9270229935646057 0.2657110095024109 -0.24821199476718903 -0.931551992893219
          -0.022905999794602394 0.19591200351715088 -0.9803540110588074 -0.1408659964799881 0.2753719985485077 -0.9509609937667847
          0.09905099868774414 0.05790700018405914 -0.993395984172821 0.11118599772453308 -0.47467300295829773 -0.8731110095977783
          0.051934998482465744 -0.3072580099105835 -0.9502080082893372 0.1642030030488968 -0.3458459973335266 -0.9238119721412659
          -0.5892770290374756 -0.5562940239906311 -0.5859090089797974 -0.6934450268745422 -0.46518900990486145 -0.550212025642395
          -0.5525239706039429 -0.5584210157394409 -0.6187760233879089 -0.04912500083446503 -0.9948920011520386 -0.08818300068378448
          0.2043589949607849 -0.7395110130310059 0.6413750052452087 0.246069997549057 -0.5132390260696411 0.8222129940986633
          -0.09066899865865707 -0.9928280115127563 0.07791599631309509 0.0071000000461936 -0.981033980846405 -0.19370700418949127
          -0.07952900230884552 -0.8777440190315247 -0.4724830090999603 -0.4211130142211914 -0.8128669857978821 -0.4023819863796234
          0.2170889973640442 -0.1567479968070984 0.963483989238739 0.6847800016403198 -0.7082340121269226 0.17170099914073944
          0.4026840031147003 -0.29210999608039856 0.8674780130386353 0.5380399823188782 -0.812487006187439 -0.2244510054588318
          0.40884798765182495 -0.8344759941101074 -0.36945000290870667 -0.30674099922180176 -0.6688169836997986 -0.6771950125694275
          -0.5278000235557556 -0.6060289740562439 -0.5951099991798401 0.5909630060195923 -0.6461459994316101 -0.4829680025577545
          0.12627799808979034 -0.9493029713630676 -0.2878830134868622 0.902243971824646 -0.22874699532985687 -0.365556001663208
          -0.4334560036659241 0.30544498562812805 -0.8478320240974426 -0.32332101464271545 0.34855300188064575 -0.8797580003738403
          -0.5152829885482788 0.22279700636863708 -0.8275539875030518 -0.7642390131950378 -0.33023500442504883 -0.553970992565155
          -0.7315080165863037 -0.2653979957103729 -0.628059983253479 -0.7864140272140503 -0.21106599271297455 -0.58051997423172
          -0.6632509827613831 0.02471099980175495 -0.7479889988899231 0.9720010161399841 0.23424600064754486 0.01850299909710884
          0.9664180278778076 0.16571299731731415 0.19640499353408813 0.9006419777870178 -0.011611999943852425 0.4344080090522766
          0.8790950179100037 0.4615969955921173 0.11882899701595306 0.8698700070381165 0.4447230100631714 0.21341699361801147
          0.43341198563575745 -0.5565459728240967 -0.7088090181350708 0.24399200081825256 -0.7915940284729004 -0.5602200031280518
          0.31953299045562744 -0.9474310278892517 0.016553999856114388 0.7339310050010681 -0.10758399963378906 0.6706500053405762
          0.6092079877853394 -0.3495410084724426 0.7118189930915833 0.007406000047922134 -0.14886899292469025 -0.9888290166854858
          -0.021970000118017197 0.04204300045967102 -0.9988740086555481 -0.2041880041360855 0.13213199377059937 -0.9699730277061462
          -0.3877289891242981 0.25016701221466064 -0.8871769905090332 -0.02910199947655201 -0.17143400013446808 -0.9847660064697266
          0.11819200217723846 -0.45504501461982727 -0.8825899958610535 -0.7392759919166565 -0.4506340026855469 -0.5004000067710876
          -0.7719150185585022 -0.4156079888343811 -0.4810590147972107 -0.7973999977111816 -0.09578999876976013 -0.59579998254776
          -0.8692860007286072 -0.08001100271940231 -0.4877919852733612 -0.7180600166320801 -0.4387759864330292 -0.5402460098266602
          -0.5884749889373779 -0.49150699377059937 -0.6419640183448792 -0.006984999869018793 -0.8387190103530884 0.5445200204849243
          0.054552000015974045 -0.07455199956893921 0.9957240223884583 -0.007189999800175428 0.20886099338531494 0.9779189825057983
          -0.6343770027160645 -0.6615020036697388 -0.3999750018119812 -0.3959459960460663 -0.6216909885406494 -0.675815999507904
          0.47004199028015137 -0.44501298666000366 -0.7622489929199219 0.6930810213088989 -0.6108279824256897 -0.3827899992465973
          -0.041106998920440674 0.2665179967880249 0.9629529714584351 -0.06518299877643585 0.29571399092674255 0.9530500173568726
          0.5834580063819885 -0.14120499789714813 0.7997739911079407 0.8988100290298462 -0.43415001034736633 0.0604420006275177
          0.7665410041809082 -0.5565670132637024 -0.32038700580596924 0.7432429790496826 -0.6367009878158569 -0.20543299615383148
          -0.08223100006580353 -0.9958159923553467 0.03986600041389465 0.1354909986257553 -0.990776002407074 -0.0023560000117868185
          0.9332259893417358 -0.3568100035190582 -0.042148999869823456 0.9751039743423462 0.1916700005531311 0.11151300370693207
          -0.3566269874572754 0.35122600197792053 -0.8657119870185852 -0.5011669993400574 0.20068399608135223 -0.8417590260505676
          -0.7408789992332458 0.14009499549865723 -0.6568660140037537 0.3440450131893158 0.588100016117096 0.7319639921188354
          0.47374001145362854 0.5680080056190491 0.673005998134613 0.9256119728088379 0.27273300290107727 0.26241201162338257
          0.8524829745292664 0.10992400348186493 0.5110679864883423 0.7215160131454468 0.6071500182151794 0.33284199237823486
          0.786903977394104 0.5883949995040894 0.1859380006790161 0.5956429839134216 0.6699680089950562 0.4431169927120209
          0.5693699717521667 0.5775020122528076 0.5850719809532166 0.803246021270752 0.41773098707199097 0.4246140122413635
          0.18827499449253082 -0.8703749775886536 -0.4549730122089386 0.5380570292472839 -0.8345950245857239 0.11809500306844711
          0.5239400267601013 -0.8490419983863831 -0.06793399900197983 0.6893690228462219 0.22482000291347504 0.6886410117149353
          0.5086529850959778 0.2753770053386688 0.8157449960708618 0.711093008518219 -0.013780999928712845 0.7029629945755005
          0.4846940040588379 0.2959809899330139 0.8230839967727661 0.631380021572113 -0.5942019820213318 0.49827998876571655
          -0.050735000520944595 -0.359703004360199 -0.9316859841346741 -0.10898300260305405 -0.3026379942893982 -0.9468539953231812
          -0.04187599942088127 -0.28284698724746704 -0.9582499861717224 -0.12222699820995331 -0.25512298941612244 -0.9591519832611084
          -0.44120699167251587 0.03906400129199028 -0.8965550065040588 -0.45999500155448914 0.1435520052909851 -0.8762400150299072
          -0.06234399974346161 -0.46442800760269165 -0.8834139704704285 0.3200480043888092 -0.7854970097541809 -0.5296819806098938
          0.01718199998140335 -0.46442800760269165 -0.8854439854621887 -0.7379909753799438 -0.2677049934864044 -0.6194379925727844
          -0.6673160195350647 -0.004765000194311142 -0.7447599768638611 -0.8653950095176697 -0.007664999924600124 -0.5010309815406799
          -0.9464070200920105 0.2653610110282898 -0.18411199748516083 -0.7276350259780884 -0.220428004860878 -0.6495829820632935
          -0.7770929932594299 0.025303000584244728 -0.6288759708404541 -0.5716680288314819 -0.37008899450302124 -0.732276976108551
          -0.5827800035476685 -0.2725439965724945 -0.7655630111694336 0.0379830002784729 -0.1618340015411377 -0.9860870242118835
          -0.4011180102825165 -0.6502969861030579 0.6451489925384521 -0.16324900090694427 -0.9537379741668701 0.25245699286460876
          -0.4172329902648926 -0.22862499952316284 0.8795719742774963 -0.3513210117816925 0.00737799983471632 0.9362260103225708
          -0.2813979983329773 0.09245400130748749 0.9551270008087158 -0.07703299820423126 0.2839460074901581 0.9557409882545471
          -0.19334599375724792 0.25367501378059387 0.9477689862251282 0.595583975315094 -0.22306300699710846 -0.7717009782791138
          0.6604830026626587 -0.5482469797134399 -0.513018012046814 -0.48493900895118713 0.07633800059556961 0.871209979057312
          -0.1300240010023117 0.19802500307559967 0.9715350270271301 -0.6122699975967407 0.08604499697685242 0.7859529852867126
          -0.6641209721565247 0.3064729869365692 0.6819220185279846 -0.0913579985499382 0.35408198833465576 0.9307420253753662
          -0.3422339856624603 0.6836950182914734 0.6445440053939819 -0.5952309966087341 0.459991991519928 0.6588680148124695
          -0.42389100790023804 0.24711400270462036 0.8713499903678894 0.22438499331474304 0.2115129977464676 0.9512689709663391
          -0.04711899906396866 0.225942000746727 0.9730010032653809 0.6806290149688721 0.2516239881515503 0.6880630254745483
          0.9896219968795776 -0.0759660005569458 -0.12197700142860413 0.7858250141143799 -0.4796389937400818 -0.3904170095920563
          0.6533709764480591 -0.4649829864501953 -0.5974090099334717 0.7573490142822266 -0.4143350124359131 -0.5047270059585571
          0.6734650135040283 -0.5569139719009399 -0.4860979914665222 0.5102779865264893 -0.5182579755783081 -0.6863120198249817
          0.6312230229377747 -0.7558479905128479 -0.17393000423908234 -0.6685940027236938 -0.709833025932312 0.22162899374961853
          -0.2855150103569031 -0.8257849812507629 -0.48637500405311584 0.9236599802970886 -0.34741100668907166 -0.1617330014705658
          0.9085069894790649 0.18566499650478363 -0.3743570148944855 0.6243669986724854 0.5871409773826599 0.5152000188827515
          -0.47773098945617676 0.060315001755952835 -0.8764330148696899 -0.5028979778289795 -0.03719799965620041 -0.8635450005531311
          -0.4481639862060547 0.09509199857711792 -0.8888790011405945 -0.08890700340270996 0.6451550126075745 0.7588610053062439
          -0.4204919934272766 0.5030270218849182 0.7550830245018005 -0.5469549894332886 0.6391350030899048 0.5406910181045532
          0.17245399951934814 0.41918298602104187 0.8913729786872864 -0.17623400688171387 0.40909600257873535 0.8953109979629517
          0.30191299319267273 0.4537909924983978 0.8384050130844116 0.10802099853754044 0.3837360143661499 0.9171029925346375
          0.14379599690437317 0.35816699266433716 0.9225180149078369 0.598825991153717 0.3750709891319275 0.7076219916343689
          0.698265016078949 0.42583900690078735 0.575402021408081 0.7933599948883057 -0.5912799835205078 0.1448020040988922
          0.5349889993667603 0.35310098528862 0.7675319910049438 0.8801649808883667 0.0840189978480339 0.4671739935874939
          0.7981820106506348 0.2393220067024231 0.5528389811515808 -0.0062409997917711735 -0.42336899042129517 -0.9059360027313232
          -0.036090999841690063 -0.37376001477241516 -0.9268230199813843 -0.04232700169086456 -0.5755100250244141 -0.8166990280151367
          -0.2027990072965622 -0.2694759964942932 -0.941411018371582 -0.3084140121936798 0.030951999127864838 -0.9507480263710022
          -0.08104699850082397 -0.3520509898662567 -0.9324650168418884 -0.010697999969124794 -0.48288801312446594 -0.8756170272827148
          0.2652609944343567 -0.6755589842796326 -0.6879370212554932 -0.6553379893302917 -0.7242980003356934 -0.2143010050058365
          -0.459757000207901 -0.721530020236969 -0.5177050232887268 -0.4408760070800781 -0.5836859941482544 -0.6818640232086182
          -0.9957349896430969 -0.08300600200891495 0.04027099907398224 -0.8417199850082397 0.16917699575424194 -0.5127249956130981
          -0.97086101770401 0.21673400700092316 -0.10225199908018112 -0.8117780089378357 0.359701007604599 0.46003401279449463
          -0.7949299812316895 0.12371599674224854 0.593953013420105 -0.5598120093345642 -0.010576000437140465 -0.8285520076751709
          -0.563077986240387 -0.23420299589633942 -0.7925230264663696 -0.6533190011978149 -0.015771999955177307 -0.7569180130958557
          -0.18485000729560852 0.3099539875984192 -0.9326090216636658 0.40845200419425964 0.04424700140953064 -0.9117069840431213
          0.2815209925174713 0.21166199445724487 -0.9359189867973328 -0.8454059958457947 -0.256648987531662 0.4684230089187622
          -0.5174099802970886 0.0229250006377697 0.855430006980896 -0.35082900524139404 0.19621700048446655 0.9156519770622253
          -0.06475099921226501 0.30428099632263184 0.9503790140151978 -0.197285994887352 0.3283799886703491 0.9237130284309387
          0.2936500012874603 -0.39757001399993896 -0.8693150281906128 0.17224599421024323 -0.1377290040254593 -0.9753779768943787
          -0.37563401460647583 -0.273470014333725 0.8855019807815552 -0.618602991104126 -0.2803429961204529 0.7339879870414734
          -0.773597002029419 -0.1271049976348877 0.6207990050315857 0.06383699923753738 -0.09577900171279907 0.9933540225028992
          -0.7722060084342957 0.2460619956254959 0.5857920050621033 -0.6844789981842041 0.5898309946060181 0.42847201228141785
          -0.7968599796295166 0.351408988237381 0.49145299196243286 -0.5363559722900391 0.3891730010509491 0.7489110231399536
          -0.34033000469207764 0.5884739756584167 0.7333980202674866 -0.007987000048160553 0.5173149704933167 0.855758011341095
          -0.04786999896168709 0.7137389779090881 0.698773980140686 -0.6617509722709656 0.7298470139503479 -0.17148900032043457
          -0.8594210147857666 0.5112040042877197 -0.008061000145971775 -0.8913310170173645 0.4050630033016205 0.20360100269317627
          -0.5490750074386597 -0.054319001734256744 0.8340060114860535 -0.24465100467205048 0.06612599641084671 0.9673539996147156
          -0.15169599652290344 0.4202210009098053 0.8946520090103149 -0.17700299620628357 0.21464799344539642 0.960519015789032
          0.15104499459266663 -0.5090739727020264 0.8473659753799438 -0.03520200029015541 0.2062940001487732 0.9778569936752319
          -0.06388399749994278 0.25339001417160034 0.9652519822120667 0.5622590184211731 0.6411089897155762 0.5223439931869507
          0.8422340154647827 0.21149900555610657 -0.4958930015563965 0.5668100118637085 -0.5054510235786438 -0.6505730152130127
          0.7802820205688477 -0.43150100111961365 -0.45273399353027344 0.7469210028648376 -0.4285520017147064 -0.5083820223808289
          0.5890920162200928 -0.549839973449707 -0.592153012752533 0.2797819972038269 -0.803846001625061 -0.5249329805374146
          0.012462999671697617 -0.6277220249176025 -0.7783380150794983 -0.002265000017359853 -0.3572309911251068 -0.9340130090713501
          0.2518390119075775 -0.116566002368927 -0.9607239961624146 0.131741002202034 -0.28854799270629883 -0.9483590126037598
          0.6224989891052246 -0.48966699838638306 -0.6105089783668518 0.5240659713745117 -0.6641160249710083 -0.5332019925117493
          0.2467779964208603 -0.7053660154342651 -0.6644989848136902 0.7360919713973999 -0.41209399700164795 -0.5369790196418762
          -0.854544997215271 -0.43925198912620544 -0.2771480083465576 0.09840399771928787 -0.7122439742088318 -0.6949999928474426
          0.05992700159549713 -0.6326239705085754 -0.7721369862556458 -0.312032014131546 -0.5106379985809326 -0.8011770248413086
          -0.5588989853858948 -0.5121809840202332 -0.6521520018577576 0.44097599387168884 -0.3246710002422333 -0.8367369771003723
          0.7372480034828186 0.41101598739624023 -0.5362200140953064 0.5392839908599854 0.7512310147285461 0.3805580139160156
          -0.4582580029964447 -0.1982479989528656 -0.866428017616272 -0.5970699787139893 -0.12549999356269836 -0.7923110127449036
          -0.5771870017051697 0.0028750000055879354 -0.8166069984436035 -0.4907180070877075 0.15292799472808838 -0.8577929735183716
          -0.35353198647499084 -0.2582859992980957 -0.8990569710731506 -0.017138000577688217 0.7514309883117676 0.6595889925956726
          -0.23217399418354034 0.6308540105819702 0.7403500080108643 -0.9524940252304077 0.08267500251531601 0.29312199354171753
          -0.8104360103607178 -0.08947200328111649 -0.5789549946784973 -0.47775998711586 0.2576049864292145 0.8398720026016235
          -0.27686798572540283 0.4055179953575134 0.8711479902267456 -0.9097300171852112 0.3973099887371063 -0.12056799978017807
          -0.3514530062675476 0.7252799868583679 0.5919870138168335 -0.8606259822845459 0.5074859857559204 0.042197998613119125
          -0.14889200031757355 0.3423289954662323 0.9277080297470093 -0.16767899692058563 0.3988870084285736 0.9015390276908875
          -0.04975999891757965 -0.2572390139102936 0.9650660157203674 0.48325300216674805 0.12189900130033493 0.8669530153274536
          0.554000973701477 0.256197988986969 0.7921149730682373 0.6923009753227234 0.12186499685049057 0.7112450003623962
          0.6291170120239258 0.14503400027751923 0.7636600136756897 0.601161003112793 -0.5096060037612915 -0.6155539751052856
          0.9899770021438599 -0.109484001994133 0.08920899778604507 0.7217550277709961 0.16065600514411926 0.6732460260391235
          0.7851139903068542 -0.06930500268936157 0.615460991859436 0.616225004196167 -0.753525972366333 0.22905300557613373
          0.9328200221061707 -0.298444002866745 0.20193800330162048 0.9497280120849609 -0.11365299671888351 0.2917200028896332
          0.5952810049057007 0.2481060028076172 0.7642539739608765 0.9068040251731873 -0.3852269947528839 -0.17118899524211884
          0.6801829934120178 -0.42535400390625 -0.597012996673584 0.11971800029277802 -0.6580060124397278 -0.7434350252151489
          -0.4927380084991455 -0.3312529921531677 -0.8046619892120361 -0.19743600487709045 -0.787397027015686 -0.5839729905128479
          -0.13797800242900848 -0.9766280055046082 -0.16480399668216705 -0.7381029725074768 -0.2664090096950531 0.619862973690033
          -0.4807719886302948 -0.7657240033149719 0.42723000049591064 -0.8156880140304565 0.32654300332069397 -0.4775170087814331
          -0.7588109970092773 0.13583999872207642 -0.6369879841804504 -0.6417499780654907 0.524802029132843 -0.5592309832572937
          -0.7414900064468384 -0.1494169980287552 -0.6541159749031067 -0.7861949801445007 0.1727149933576584 -0.5933520197868347
          -0.6341390013694763 -0.14980800449848175 -0.7585679888725281 -0.16398799419403076 0.2928380072116852 -0.9419950246810913
          -0.8880519866943359 -0.3534890115261078 -0.293953001499176 -0.23725099861621857 0.358474999666214 0.9028880000114441
          -0.10516200214624405 -0.26920801401138306 -0.9573230147361755 0.019099000841379166 -0.4825350046157837 0.875669002532959
          -0.4459350109100342 -0.7179359793663025 0.5345180034637451 -0.19852200150489807 -0.8631089925765991 0.4643610119819641
          -0.6812660098075867 -0.4217270016670227 0.5983499884605408 -0.8598420023918152 -0.48255598545074463 0.16676799952983856
          -0.9712520241737366 0.23278799653053284 0.04978499934077263 -0.8322359919548035 0.25249001383781433 0.49358999729156494
          -0.870244026184082 0.46294599771499634 0.16839399933815002 -0.5859929919242859 0.280348002910614 -0.7602739930152893
          -0.6602020263671875 0.261586993932724 -0.7040629982948303 -0.6443430185317993 0.3638170063495636 0.6726509928703308
          -0.5615119934082031 0.3533479869365692 0.7482309937477112 -0.3140150010585785 0.5455549955368042 0.7770230174064636
          -0.33620500564575195 0.7974159717559814 0.5010929703712463 -0.720100998878479 0.6380360126495361 -0.2727000117301941
          -0.7748780250549316 0.3216780126094818 -0.54413902759552 -0.4389660060405731 -0.35603800415992737 0.8249520063400269
          -0.7466199994087219 0.581384003162384 0.32334399223327637 -0.9257599711418152 0.13871000707149506 0.351749986410141
          -0.8624780178070068 0.16826100647449493 0.47730499505996704 -0.7585989832878113 0.07762700319290161 0.6469169855117798
          -0.45231300592422485 -0.3426629900932312 0.8234050273895264 -0.49506399035453796 -0.7606629729270935 0.4198850095272064
          0.40329501032829285 0.8954650163650513 0.18840600550174713 0.04226100072264671 0.6807109713554382 0.731332004070282
          0.337240993976593 -0.5607929825782776 -0.7561609745025635 0.5808990001678467 -0.06517499685287476 -0.8113620281219482
          0.3851119875907898 -0.5984629988670349 -0.7025169730186462 0.7111459970474243 -0.357899010181427 -0.6051279902458191
          -0.07261800020933151 -0.9566090106964111 -0.28217899799346924 0.528872013092041 -0.3891479969024658 -0.7542269825935364
          0.585282027721405 -0.24495799839496613 -0.7729430198669434 0.6695129871368408 -0.3368990123271942 -0.6620060205459595
          -0.3099850118160248 -0.9114239811897278 0.27058398723602295 -0.01167600043118 -0.9620059728622437 -0.2727789878845215
          -0.38719698786735535 -0.8502190113067627 -0.3566589951515198 0.6538159847259521 -0.1909870058298111 -0.7321540117263794
          -0.42079898715019226 -0.7065690159797668 -0.5689359903335571 -0.6795549988746643 -0.40793800354003906 -0.6097480058670044
          -0.3639940023422241 -0.11700999736785889 -0.9240220189094543 0.4970549941062927 -0.41329699754714966 -0.7629690170288086
          0.053367000073194504 -0.6583970189094543 -0.750777006149292 0.1373790055513382 -0.48159798979759216 -0.8655580282211304
          0.13594399392604828 -0.7092750072479248 -0.6916990280151367 0.1771640032529831 -0.6934869885444641 -0.6983469724655151
          0.21924400329589844 -0.6830170154571533 -0.6967210173606873 0.0481950007379055 -0.7207260131835938 -0.6915429830551147
          0.2511659860610962 -0.5891270041465759 -0.7680140137672424 -0.7868490219116211 -0.3102560043334961 -0.5334889888763428
          0.45262500643730164 -0.23224200308322906 -0.8609269857406616 0.649170994758606 0.7385510206222534 0.181985005736351
          0.7943220138549805 0.5396000146865845 -0.2790769934654236 0.3770430088043213 0.8549370169639587 0.35625898838043213
          -0.5913919806480408 -0.3499940037727356 -0.7264710068702698 -0.5695279836654663 -0.2839690148830414 -0.7713620066642761
          -0.7002249956130981 -0.1114640012383461 -0.7051669955253601 -0.520350992679596 0.10712400078773499 -0.8472070097923279
          -0.67808598279953 -0.04685400053858757 -0.7334880232810974 0.021184999495744705 -0.7048140168190002 -0.7090759873390198
          -0.5047680139541626 -0.08785200119018555 -0.8587729930877686 -0.37202998995780945 -0.7679889798164368 -0.5213310122489929
          -0.043905001133680344 -0.9258419871330261 -0.3753510117530823 -0.49829500913619995 0.2297469973564148 -0.8360130190849304
          -0.185371994972229 0.9271500110626221 0.3256239891052246 -0.7555249929428101 -0.04552900046110153 -0.6535360217094421
          -0.6784229874610901 0.610759973526001 0.4083069860935211 -0.5410439968109131 0.7623649835586548 0.3550660014152527
          -0.3364439904689789 0.8827559947967529 0.3279449939727783 0.11823300272226334 -0.9095680117607117 0.39838001132011414
          0.012476000003516674 0.02578200027346611 0.9995899796485901 -0.19521300494670868 -0.8657940030097961 0.4607529938220978
          -0.18682000041007996 0.07986199855804443 0.9791430234909058 -0.014023999683558941 0.10172899812459946 0.9947130084037781
          0.7760530114173889 0.15596100687980652 0.6110789775848389 0.8491230010986328 0.13322100043296814 0.51111900806427