<?xml version="1.0"?>
<VTKFile type="PolyData" version="0.1" byte_order="LittleEndian" header_type="UInt32" compressor="vtkZLibDataCompressor">
  <PolyData>
    <Piece NumberOfPoints="3558" NumberOfVerts="0" NumberOfLines="0" NumberOfStrips="0" NumberOfPolys="7126">
      <PointData Normals="Normals">
        <DataArray type="Float32" Name="Normals" NumberOfComponents="3" format="ascii" RangeMin="0.9999991833365588" RangeMax="1.0000008466599057">
          -0.0015150000108405948 0.2511900067329407 0.9679359793663025 -0.02846900001168251 0.2402079999446869 0.970304012298584
          0.19106200337409973 0.09098599851131439 0.9773520231246948 0.18146400153636932 0.17660999298095703 0.9674090147018433
          -0.1109130010008812 0.262721985578537 0.9584760069847107 0.14417600631713867 0.2752769887447357 0.9504920244216919
          0.34936800599098206 0.20598599314689636 0.9140639901161194 0.27745598554611206 -0.005198999773710966 0.9607239961624146
          -0.11188499629497528 0.33812999725341797 0.9344249963760376 -0.06910700350999832 0.19412299990653992 0.9785400032997131
          0.17252600193023682 -0.061955999583005905 0.9830549955368042 -0.036628998816013336 0.32041099667549133 0.9465699791908264
          0.47402098774909973 -0.23512299358844757 0.8485400080680847 0.36476001143455505 -0.02078399993479252 0.930869996547699
          0.4221940040588379 0.08019199967384338 0.9029520153999329 0.3647319972515106 0.1703840047121048 0.9153900146484375
          -0.03080799989402294 0.29255399107933044 0.9557530283927917 0.06814099848270416 0.19160600006580353 0.9791039824485779
          -0.11412599682807922 0.1393429934978485 0.9836459755897522 -0.1799830049276352 0.24653300642967224 0.9522749781608582
          0.553596019744873 0.1960349977016449 0.809382975101471 0.3952749967575073 0.19641900062561035 0.8973169922828674
          0.6306399703025818 0.08100900053977966 0.77183598279953 0.5770779848098755 0.07680600136518478 0.8130699992179871
          0.708482027053833 0.11134400218725204 0.6968899965286255 0.34867098927497864 -0.18154099583625793 0.9194949865341187
          0.03474799916148186 0.35985198616981506 0.9323620200157166 -0.10314500331878662 0.456385999917984 0.8837829828262329
          0.1926559954881668 -0.0935090035200119 0.9768009781837463 0.3046019971370697 -0.3981100022792816 0.8652889728546143
          0.4162819981575012 -0.4550830125808716 0.7871519923210144 0.030585000291466713 0.35049399733543396 0.9360659718513489
          0.11299499869346619 0.18413400650024414 0.9763849973678589 0.6481220126152039 -0.3583329916000366 0.6719639897346497
          0.5874840021133423 -0.641776978969574 0.4929350018501282 0.6059510111808777 -0.10258899629116058 0.7888590097427368
          0.6366270184516907 -0.0032889998983591795 0.7711650133132935 0.5707589983940125 0.0918240025639534 0.8159670233726501
          -0.07491999864578247 0.4067150056362152 0.9104779958724976 -0.26346200704574585 0.3302209973335266 0.9063900113105774
          0.05357600003480911 0.09411399811506271 0.9941189885139465 0.3061339855194092 0.11372199654579163 0.9451720118522644
          -0.17982099950313568 0.049396999180316925 0.9824579954147339 0.0011439999798312783 0.10666300356388092 0.9942950010299683
          -0.2036059945821762 0.11441600322723389 0.9723439812660217 -0.22222299873828888 0.18911300599575043 0.9564800262451172
          -0.28342899680137634 0.22370900213718414 0.9325349926948547 0.654242992401123 0.1381700038909912 0.743556022644043
          0.8359940052032471 0.08222399652004242 0.5425440073013306 0.5853109955787659 0.10966800153255463 0.8033580183982849
          0.8015980124473572 -0.05089399963617325 0.5956929922103882 0.8095070123672485 -0.0020890000741928816 0.5871070027351379
          0.7912359833717346 -0.08977799862623215 0.6048849821090698 0.9333119988441467 -0.014449000358581543 0.3587760031223297
          -0.08016599714756012 0.411408007144928 0.9079189896583557 0.4599809944629669 -0.5873200297355652 0.6659380197525024
          0.37819600105285645 -0.11333099752664566 0.9187620282173157 0.3152660131454468 -0.5280920267105103 0.7884960174560547
          0.35795900225639343 -0.6628829836845398 0.6576110124588013 0.4701699912548065 -0.7435190081596375 0.4755209982395172
          -0.027408000081777573 0.2662140130996704 0.9635239839553833 0.23785600066184998 0.2693600058555603 0.9332039952278137
          0.6763070225715637 -0.6680799722671509 0.3102869987487793 0.7403820157051086 -0.4937959909439087 0.45607098937034607
          0.7476170063018799 -0.24708600342273712 0.6164550185203552 0.5149250030517578 -0.7917400002479553 0.32863399386405945
          0.5821679830551147 -0.7632049918174744 0.28035399317741394 -0.27204298973083496 0.43138599395751953 0.8601740002632141
          -0.21610300242900848 0.2525329887866974 0.9431470036506653 -0.18333700299263 0.27647000551223755 0.9433720111846924
          -0.1180569976568222 0.40093299746513367 0.908469021320343 -0.036660000681877136 0.25452300906181335 0.966372013092041
          -0.355334997177124 0.3986560106277466 0.8454650044441223 -0.44502198696136475 0.32434600591659546 0.8347190022468567
          0.2921920120716095 0.11233600229024887 0.9497389793395996 0.5701379776000977 0.11671900004148483 0.8132150173187256
          -0.15417000651359558 -0.016440000385046005 0.9879080057144165 -0.23757599294185638 0.04047299921512604 0.9705250263214111
          -0.22818699479103088 -0.01434400025755167 0.9735119938850403 -0.24448899924755096 -0.03816299885511398 0.9689009785652161
          -0.025723999366164207 0.00875100027769804 0.9996309876441956 0.0738300010561943 0.11512699723243713 0.9906030297279358
          0.2828789949417114 0.15774700045585632 0.9460949897766113 -0.31643399596214294 0.07431399822235107 0.9456989765167236
          -0.32350999116897583 0.16745199263095856 0.9312899708747864 -0.432871013879776 0.24167700111865997 0.8684549927711487
          -0.5929690003395081 0.25178998708724976 0.7648469805717468 -0.5258340239524841 0.19424200057983398 0.828112006187439
          0.8196690082550049 0.09191600233316422 0.5654150247573853 0.9726529717445374 0.004007999785244465 0.23222999274730682
          0.7974230051040649 0.11010400205850601 0.5932909846305847 0.8966959714889526 -0.12026699632406235 0.42599600553512573
          0.9064630270004272 -0.06879100203514099 0.41664400696754456 0.8177779912948608 -0.2908709943294525 0.4966210126876831
          0.9094650149345398 -0.20293700695037842 0.36289098858833313 0.9801959991455078 -0.007335999980568886 0.19789299368858337
          0.5097699761390686 -0.6946030259132385 0.5076040029525757 0.5893549919128418 -0.7905409932136536 0.1664540022611618
          0.29344499111175537 -0.9257060289382935 0.23865899443626404 0.3982529938220978 -0.8117960095405579 0.4270620048046112
          0.382205992937088 -0.5632309913635254 0.7325909733772278 0.27149099111557007 -0.30667200684547424 0.9122740030288696
          0.30126500129699707 0.04219299927353859 0.9526060223579407 0.10197599977254868 0.007906000129878521 0.9947559833526611
          0.08220700174570084 0.1485919952392578 0.985476016998291 0.632686972618103 -0.6885610222816467 0.3543890118598938
          0.6056960225105286 -0.6429929733276367 0.4687129855155945 0.6793209910392761 -0.601718008518219 0.42006900906562805
          0.8320609927177429 -0.4843760132789612 0.2702859938144684 0.29800599813461304 -0.9101089835166931 0.2879120111465454
          0.484281986951828 -0.666558027267456 0.5667200088500977 -0.3288480043411255 0.33621498942375183 0.8825070261955261
          -0.3671180009841919 0.3895229995250702 0.8446869850158691 -0.29144999384880066 -0.09686599671840668 0.9516689777374268
          -0.12292300164699554 -0.3029800057411194 0.945035994052887 -0.15319399535655975 -0.06880000233650208 0.9857980012893677
          -0.13556799292564392 0.22371800243854523 0.9651790261268616 0.012500000186264515 0.012032999657094479 0.9998490214347839
          0.14034700393676758 -0.09657300263643265 0.985381007194519 -0.4473550021648407 0.35780999064445496 0.8196619749069214
          -0.6018549799919128 0.26708200573921204 0.7526209950447083 -0.696478009223938 0.23388999700546265 0.6783909797668457
          -0.7091789841651917 0.2816460132598877 0.6463279724121094 0.578656017780304 0.15946699678897858 0.7998300194740295
          0.7905300259590149 0.15470199286937714 0.5925610065460205 -0.09091600030660629 -0.1362210065126419 0.9864979982376099
          -0.22709199786186218 -0.23707500100135803 0.9445769786834717 -0.23660500347614288 -0.024351000785827637 0.9713010191917419
          -0.271914005279541 -0.025342000648379326 0.9619879722595215 -0.3012470006942749 -0.011327000334858894 0.953478991985321
          -0.27015599608421326 0.07333700358867645 0.9600200057029724 -0.3502509891986847 0.05999999865889549 0.9347320199012756
          0.015165000222623348 -0.10117500275373459 0.9947530031204224 0.1856440007686615 0.133310005068779 0.9735320210456848
          0.2763580083847046 -0.06093600019812584 0.9591209888458252 0.47895100712776184 0.24484199285507202 0.8430060148239136
          0.5881639719009399 0.21938499808311462 0.7784169912338257 -0.4390279948711395 0.10197000205516815 0.8926680088043213
          -0.571940004825592 0.11738099902868271 0.8118540048599243 -0.34904998540878296 -0.010710000060498714 0.9370430111885071
          -0.30206701159477234 -0.01382800005376339 0.9531869888305664 -0.3747999966144562 0.10854099690914154 0.9207299947738647
          -0.37999099493026733 0.1580979973077774 0.9113789796829224 -0.6391900181770325 0.2665799856185913 0.7213670015335083
          -0.7082489728927612 0.24753700196743011 0.6611419916152954 -0.5251110196113586 0.15709500014781952 0.8364089727401733
          -0.4891670048236847 0.12714000046253204 0.8628739714622498 -0.5391970276832581 0.14677199721336365 0.8292909860610962
          0.9571890234947205 0.06575900316238403 0.2818950116634369 0.9994530081748962 -0.032301001250743866 -0.007104999851435423
          0.9196509718894958 0.12913300096988678 0.3708989918231964 0.9080150127410889 -0.3945299983024597 0.1409039944410324
          0.9618629813194275 -0.08841200172901154 0.25884801149368286 0.923632025718689 0.011760000139474869 0.3831000030040741
          0.9563469886779785 0.1443070024251938 0.2541179955005646 0.9982759952545166 0.05745299905538559 -0.012021999806165695
          0.17118099331855774 -0.8921539783477783 0.4180409908294678 0.2759850025177002 -0.9366400241851807 -0.21572500467300415
          0.29375898838043213 -0.9524880051612854 -0.08044499903917313 0.6985740065574646 -0.7147409915924072 -0.03375900164246559
          0.3796580135822296 -0.9179329872131348 0.11514399945735931 0.0989919975399971 -0.5315639972686768 0.8412129878997803
          0.02001499943435192 -0.30313000082969666 0.9527390003204346 0.5621799826622009 -0.5935689806938171 0.5758730173110962
          0.7575200200080872 -0.6321150064468384 0.16308000683784485 0.6521520018577576 -0.683696985244751 0.32749998569488525
          0.4990899860858917 -0.7065979838371277 0.5016260147094727 0.8497350215911865 -0.5187199711799622 0.0942310020327568
          0.14501799643039703 -0.9082739949226379 0.39243900775909424 0.484699010848999 -0.7404299974441528 0.4656499922275543
          0.38675200939178467 -0.607122004032135 0.6941369771957397 0.28462401032447815 -0.7068549990653992 0.6475690007209778
          -0.39083999395370483 0.33966100215911865 0.8554970026016235 -0.4560309946537018 0.17216600477695465 0.8731520175933838
          -0.4134109914302826 -0.005739999935030937 0.9105269908905029 -0.6189029812812805 0.07300599664449692 0.7820680141448975
          -0.4723080098628998 0.1903190016746521 0.8606410026550293 -0.4780629873275757 -0.42381298542022705 0.7693110108375549
          -0.29912200570106506 -0.6679959893226624 0.6814010143280029 -0.10097099840641022 -0.8207589983940125 0.562279999256134
          -0.7833970189094543 0.15131600201129913 0.6028209924697876 -0.841588020324707 -0.03082999959588051 0.5392400026321411
          -0.8659949898719788 0.029186999425292015 0.4991999864578247 -0.706400990486145 0.11117800325155258 0.6990259885787964
          0.8104040026664734 0.21542899310588837 0.5448259711265564 0.9235129952430725 0.2208320051431656 0.313620001077652
          0.12567299604415894 -0.2053859978914261 0.9705790281295776 0.14349499344825745 -0.059505999088287354 0.9878609776496887
          -0.26364201307296753 -0.0747309997677803 0.9617210030555725 -0.32657501101493835 -0.18439799547195435 0.9270089864730835
          -0.3627919852733612 -0.015639999881386757 0.9317389726638794 -0.06921199709177017 -0.22317400574684143 0.9723179936408997
          -0.07079300284385681 -0.21778100728988647 0.9734269976615906 0.5994020104408264 -0.19859999418258667 0.7754200100898743
          -0.2880840003490448 -0.19991199672222137 0.9365050196647644 0.003877999959513545 -0.3355109989643097 0.9420279860496521
          -0.2576969861984253 0.31089600920677185 0.9148420095443726 -0.2952139973640442 0.07137700170278549 0.9527609944343567
          -0.2507160007953644 0.2026589959859848 0.9466099739074707 -0.37754300236701965 0.24643099308013916 0.8925989866256714
          -0.3624260127544403 0.1604429930448532 0.9180989861488342 -0.468082994222641 0.06422500312328339 0.8813470005989075
          -0.43051600456237793 0.24790500104427338 0.8678709864616394 -0.5640389919281006 0.21734899282455444 0.7966309785842896
          -0.5363600254058838 0.32012999057769775 0.7809190154075623 0.4392639994621277 0.03554699942469597 0.8976550102233887
          0.7707350254058838 0.24122300744056702 0.5897279977798462 0.7016199827194214 0.0003760000108741224 0.7125509977340698
          0.8294879794120789 0.5067269802093506 0.23489800095558167 0.8921269774436951 0.4042370021343231 0.20174799859523773
          0.7676360011100769 0.3584490120410919 0.5312719941139221 -0.40904200077056885 0.07530300319194794 0.9094030261039734
          -0.5438230037689209 -0.014158999547362328 0.8390799760818481 -0.6555359959602356 0.17947199940681458 0.7335270047187805
          -0.6255319714546204 0.09923800081014633 0.7738609910011292 -0.6306279897689819 0.02071700058877468 0.7758089900016785
          -0.7181320190429688 0.2061219960451126 0.6646810173988342 -0.5804619789123535 0.13512900471687317 0.8029969930648804
          -0.6106110215187073 -0.04984400048851967 0.7903609871864319 -0.6708089709281921 0.028874000534415245 0.7410680055618286
          -0.6043109893798828 0.14097000658512115 0.7841789722442627 0.9731109738349915 0.12999999523162842 0.19014200568199158
          0.999343991279602 -0.030504999682307243 -0.01952500082552433 0.9860519766807556 -0.08144000172615051 0.14515000581741333
          0.9743430018424988 0.017596999183297157 0.2243809998035431 0.8726710081100464 -0.4883059859275818 0.0015960000455379486
          0.917697012424469 -0.3927049934864044 0.06012300029397011 0.9539049863815308 -0.24644599854946136 0.17125999927520752
          0.9385740160942078 0.021765999495983124 0.34439000487327576 0.8895679712295532 0.1869100034236908 0.4168129861354828
          0.9392939805984497 0.2738170027732849 0.20676200091838837 0.9635729789733887 0.2504349946975708 0.09385800361633301
          0.03930800035595894 -0.9989609718322754 0.023070000112056732 0.09263700246810913 -0.9856780171394348 -0.14091399312019348
          0.24126599729061127 -0.8894180059432983 -0.3882350027561188 0.1558919996023178 -0.6804580092430115 -0.7160130143165588
          -0.020930999889969826 -0.5662180185317993 -0.8239889740943909 0.326992005109787 -0.8095390200614929 -0.4875679910182953
          0.15977799892425537 -0.8287379741668701 -0.536342978477478 0.5052689909934998 -0.8095970153808594 0.29875698685646057
          0.5932250022888184 -0.7790690064430237 0.20281900465488434 0.82601398229599 -0.5624629855155945 -0.036552999168634415
          0.3661479949951172 -0.7828050255775452 0.5031430125236511 0.2509329915046692 -0.6754400134086609 0.6934069991111755
          -0.46514400839805603 -0.8771330118179321 0.1194939985871315 -0.21823899447917938 -0.8812869787216187 0.4191719889640808
          -0.4547240138053894 -0.8904740214347839 0.016797000542283058 -0.014016999863088131 -0.7212989926338196 0.6924809813499451
          -0.5661789774894714 -0.1692570000886917 0.8067179918289185 -0.8729450106620789 -0.052379000931978226 0.4849979877471924
          -0.7918360233306885 -0.40898698568344116 0.45357000827789307 -0.7129529714584351 -0.33608800172805786 0.6154209971427917
          -0.40938299894332886 -0.8480669856071472 0.3364329934120178 -0.6125590205192566 -0.6152380108833313 0.4962390065193176
          -0.16710300743579865 -0.9679679870605469 0.18738900125026703 -0.8884590268135071 -0.35165199637413025 0.29492801427841187
          -0.8712170124053955 -0.3935700058937073 0.29339998960494995 -0.9164230227470398 -0.2097329944372177 0.3408519923686981
          -0.8168010115623474 -0.0793989971280098 0.5714300274848938 -0.8794289827346802 -0.20606699585914612 0.42911699414253235
          -0.7583320140838623 -0.041315000504255295 0.6505579948425293 0.8773760199546814 0.4537630081176758 0.15591800212860107
          0.9240319728851318 0.3223789930343628 0.20551499724388123 0.14072999358177185 -0.1349560022354126 0.9808070063591003
          0.6400920152664185 0.13304300606250763 0.7566909790039062 0.5197060108184814 -0.0663909986615181 0.851760983467102
          -0.27698200941085815 0.13507899641990662 0.9513329863548279 -0.40046000480651855 -0.021462000906467438 0.9160630106925964
          -0.3005329966545105 -0.1284630000591278 0.9450809955596924 -0.4284430146217346 0.3119469881057739 0.8480129837989807
          -0.2994700074195862 0.39931100606918335 0.8665260076522827 -0.20106300711631775 -0.23491300642490387 0.9509940147399902
          0.029982000589370728 0.059043001383543015 0.9978049993515015 0.24914300441741943 0.11744999885559082 0.9613190293312073
          0.2822349965572357 -0.0007730000070296228 0.9593449831008911 -0.05800199881196022 -0.15650400519371033 0.9859730005264282
          0.7903050184249878 -0.15384399890899658 0.593084990978241 0.9433119893074036 -0.04679400101304054 0.3285920023918152
          -0.3246209919452667 0.3368169963359833 0.8838409781455994 -0.16937899589538574 0.807778000831604 0.564628005027771
          -0.2694909870624542 0.7207720279693604 0.6386409997940063 -0.2270829975605011 0.5263190269470215 0.8194029927253723
          -0.31128400564193726 0.5326769948005676 0.7869930267333984 -0.3182629942893982 0.5176479816436768 0.7941979765892029
          -0.3891029953956604 0.3672730028629303 0.8448129892349243 -0.605318009853363 0.18110400438308716 0.7751070261001587
          -0.4614720046520233 0.43919000029563904 0.7708150148391724 -0.6700140237808228 0.31154298782348633 0.6738110184669495
          -0.691303014755249 0.43509000539779663 0.576885998249054 -0.5996760129928589 0.5851960182189941 0.5458329916000366
          0.8734409809112549 0.24764800071716309 0.4192500114440918 0.9214019775390625 0.24027299880981445 0.30542799830436707
          0.8983160257339478 0.40694698691368103 -0.16559599339962006 0.7970049977302551 0.4869059920310974 -0.35735899209976196
          0.7040299773216248 0.7030590176582336 -0.1002419963479042 0.6286370158195496 0.6056870222091675 -0.48781099915504456
          -0.7047849893569946 -0.15083999931812286 0.6931989789009094 -0.7192720174789429 -0.06858699768781662 0.6913340091705322
          -0.8150060176849365 -0.2154330015182495 0.5379170179367065 -0.6653879880905151 0.1273760050535202 0.7355499863624573
          -0.858381986618042 0.03581999987363815 0.511758029460907 -0.7178630232810974 0.029815999791026115 0.6955450177192688
          -0.8356559872627258 0.11317399889230728 0.5374670028686523 -0.824101984500885 -0.051982998847961426 0.5640509724617004
          -0.8487030267715454 -0.08733200281858444 0.5216100215911865 -0.7044240236282349 0.2080020010471344 0.678617000579834
          -0.6963229775428772 0.17556099593639374 0.6959260106086731 -0.7303079962730408 0.1983640044927597 0.6536840200424194
          -0.6955389976501465 0.25839999318122864 0.6704130172729492 -0.8311910033226013 -0.14411400258541107 0.5369849801063538
          -0.8596829771995544 -0.24984900653362274 0.44555801153182983 -0.7100579738616943 -0.2401989996433258 0.6619070172309875
          -0.7241039872169495 -0.2736159861087799 0.6330940127372742 0.9598709940910339 0.12445300072431564 0.25131499767303467
          0.9609590172767639 0.1901179999113083 0.2010270059108734 0.9327700138092041 0.24012500047683716 0.2688480019569397
          0.8749039769172668 0.1048780009150505 0.4728040099143982 0.9059320092201233 -0.01474399957805872 0.42316699028015137
          0.8901609778404236 -0.06231600046157837 0.45136401057243347 0.8759130239486694 -0.13280099630355835 0.46383199095726013
          0.9420250058174133 0.05981000140309334 0.33017000555992126 0.9400569796562195 0.09339900314807892 0.3279759883880615
          0.8763229846954346 -0.46500200033187866 -0.12582600116729736 0.9102169871330261 -0.41244301199913025 -0.03735499829053879
          0.9767569899559021 -0.21297100186347961 0.024289999157190323 0.9585130214691162 -0.03558500111103058 0.2828199863433838
          0.8752120137214661 0.14483599364757538 0.46154800057411194 0.8128820061683655 0.22464099526405334 0.5373629927635193
          0.8088759779930115 0.36478498578071594 0.46114200353622437 0.7332280278205872 0.43107500672340393 0.5258809924125671
          0.1602489948272705 -0.9566289782524109 -0.24326999485492706 -0.01658100076019764 -0.9852340221405029 -0.1704079955816269
          0.3243669867515564 -0.8396689891815186 -0.43559300899505615 0.4461989998817444 -0.6545500159263611 -0.6103039979934692
          0.37978699803352356 -0.8091480135917664 -0.4483779966831207 0.484142005443573 -0.8682739734649658 -0.10820099711418152
          0.12763799726963043 -0.6419270038604736 -0.7560679912567139 -0.12078399956226349 -0.9902709722518921 -0.0690929964184761
          0.33655399084091187 -0.8755249977111816 0.34668099880218506 0.35717299580574036 -0.8582289814949036 0.36860600113868713
          0.41747498512268066 -0.8747590184211731 0.2459920048713684 0.3949809968471527 -0.886214017868042 0.24210600554943085
          0.6578130125999451 -0.7394539713859558 0.14314599335193634 0.7742149829864502 -0.6301940083503723 -0.058699000626802444
          0.8438940048217773 -0.4987429976463318 -0.19773299992084503 0.8553590178489685 -0.5026159882545471 -0.12545299530029297
          0.21512800455093384 -0.7745029926300049 0.5948650240898132 -0.6428880095481873 -0.7659010291099548 0.00950899999588728
          -0.2357580065727234 -0.9365800023078918 -0.2592979967594147 -0.24096199870109558 -0.962457001209259 0.12495499849319458
          -0.5976669788360596 -0.6850929856300354 0.4164629876613617 -0.3812359869480133 -0.4937329888343811 0.7815920114517212
          0.043255001306533813 -0.7529190182685852 0.6566900014877319 -0.6603279709815979 -0.7448890209197998 0.09542900323867798
          -0.6732500195503235 -0.7168329954147339 0.18133999407291412 -0.2687070071697235 -0.959272027015686 -0.08714800328016281
          -0.4838680028915405 -0.8746150135993958 -0.03034999966621399 -0.7045300006866455 -0.69234699010849 0.15586400032043457
          -0.8238949775695801 -0.5148490071296692 0.23691199719905853 -0.8664489984512329 -0.3772349953651428 0.3270469903945923
          -0.8442059755325317 -0.30028700828552246 0.444009006023407 -0.8228049874305725 -0.4160880148410797 0.3871209919452667
          0.5434719920158386 0.8266019821166992 -0.1461780071258545 0.7342550158500671 0.668267011642456 0.11953599750995636
          0.6640220284461975 0.48356500267982483 0.5702970027923584 0.6638090014457703 0.2982800006866455 0.6858479976654053
          0.9047579765319824 0.39342600107192993 0.1631840020418167 -0.3620460033416748 0.38237398862838745 0.8501250147819519
          -0.2189289927482605 0.16449399292469025 0.961775004863739 -0.16575700044631958 0.025692999362945557 0.9858319759368896
          -0.20726700127124786 0.8674589991569519 0.4522779881954193 -0.2227810025215149 0.7193880081176758 0.6579130291938782
          0.04343299940228462 0.03389599919319153 0.9984809756278992 0.21641099452972412 0.43909600377082825 0.871986985206604
          0.338919997215271 0.37244200706481934 0.8639559745788574 0.6508039832115173 0.4034309983253479 0.6431930065155029
          -0.14052100479602814 0.9824180006980896 -0.12291499972343445 0.015281000174582005 0.9504070281982422 0.31063300371170044
          0.0832500010728836 0.972985029220581 -0.2153339982032776 -0.036809999495744705 0.8736640214920044 0.4851349890232086
          -0.0024580000899732113 0.9994210004806519 -0.03395099937915802 -0.11007600277662277 0.7249659895896912 0.6799319982528687
          -0.36029499769210815 0.5572090148925781 0.748134970664978 -0.234593003988266 0.7678980231285095 0.5960699915885925
          -0.7142900228500366 0.31992900371551514 0.6224430203437805 -0.4331269860267639 0.6940410137176514 0.5750719904899597
          -0.7545809745788574 0.4545460045337677 0.47328200936317444 -0.7188230156898499 0.6523900032043457 0.24016700685024261
          -0.5422580242156982 0.7582579851150513 0.36194199323654175 0.9342690110206604 0.2698729932308197 -0.23304300010204315
          0.8617830276489258 0.37423399090766907 -0.3424600064754486 0.6591089963912964 0.27651000022888184 -0.6993690133094788
          0.6726539731025696 0.45621100068092346 -0.5825870037078857 0.22172300517559052 0.7634890079498291 -0.6065670251846313
          0.5047370195388794 0.39090201258659363 -0.769698977470398 0.6206650137901306 0.35471200942993164 -0.6992530226707458
          -0.820389986038208 -0.31912198662757874 0.47446998953819275 -0.8669229745864868 -0.2921130061149597 0.403874009847641
          -0.9513599872589111 -0.21457700431346893 0.22106699645519257 -0.91805499792099 -0.3099049925804138 0.24725300073623657
          -0.9151260256767273 0.1338540017604828 0.38029998540878296 -0.7800989747047424 0.11429399996995926 0.6151279807090759
          -0.9713379740715027 -0.09636799991130829 0.21729299426078796 -0.96452397108078 0.0008529999759048223 0.2639929950237274
          -0.9694870114326477 0.062238000333309174 0.2371090054512024 -0.8172619938850403 0.25326699018478394 0.5176270008087158
          -0.8352919816970825 0.3330160081386566 0.4374780058860779 -0.852961003780365 0.20229500532150269 0.48118001222610474
          -0.8793749809265137 0.28174200654029846 0.38382500410079956 -0.8115869760513306 0.4355199933052063 0.3894209861755371
          -0.9127410054206848 -0.3175469934940338 0.2570370137691498 -0.8828909993171692 -0.4611259996891022 0.08868800103664398
          -0.8321560025215149 -0.4791240096092224 0.2792069911956787 -0.8081870079040527 -0.3862999975681305 0.4445289969444275
          0.983797013759613 0.061507999897003174 0.16840699315071106 0.9945380091667175 0.0732090026140213 0.07439099997282028
          0.9511569738388062 0.16787299513816833 0.2590729892253876 0.9239460229873657 0.23985399305820465 0.29798299074172974
          0.897113025188446 0.39250698685646057 0.20279699563980103 0.7649499773979187 0.4483329951763153 0.4624379873275757
          0.7781429886817932 0.5341539978981018 0.33041301369667053 0.7485219836235046 0.14205199480056763 0.6477159857749939
          0.6589940190315247 0.26643699407577515 0.7033759951591492 0.8991749882698059 -0.008794999681413174 0.4375
          0.8319249749183655 -0.0006179999909363687 0.5548880100250244 0.7873349785804749 -0.008267000317573547 0.6164690256118774
          0.8839799761772156 0.1155259981751442 0.4530259966850281 0.9796220064163208 0.09114500135183334 0.17897799611091614
          0.8701260089874268 -0.4523620009422302 -0.1955759972333908 0.9323790073394775 -0.3251509964466095 -0.157943993806839
          0.9409729838371277 -0.304082989692688 -0.14867199957370758 0.9775450229644775 -0.1741729974746704 -0.11861299723386765
          0.9906160235404968 -0.13229399919509888 0.03432000055909157 0.979062020778656 -0.02975500002503395 0.2013780027627945
          0.814179003238678 0.20772899687290192 0.5421810150146484 0.832190990447998 0.06388700008392334 0.5507969856262207
          0.7793830037117004 0.13019299507141113 0.6128720045089722 0.04856500029563904 -0.9928619861602783 -0.10893599689006805
          0.481783002614975 -0.8733599781990051 -0.07161000370979309 -0.25709301233291626 -0.9376999735832214 -0.2337149977684021
          0.5269200205802917 -0.8164139986038208 0.2362709939479828 0.6764270067214966 -0.698261022567749 0.23426200449466705
          0.21984800696372986 -0.9525830149650574 0.21036399900913239 0.29934999346733093 -0.8742640018463135 0.3821670114994049
          0.06262999773025513 -0.7640209794044495 0.6421449780464172 0.21089300513267517 -0.95694500207901 0.1994509994983673
          0.13657300174236298 -0.8984460234642029 0.41730400919914246 0.0701109990477562 -0.908935010433197 0.41100001335144043
          0.1993979960680008 -0.9426569938659668 0.26765498518943787 0.5814599990844727 -0.811805009841919 0.05362899973988533
          0.28011101484298706 -0.927944004535675 0.24587999284267426 0.26832500100135803 -0.9394189715385437 0.21329499781131744
          0.7401790022850037 -0.6341660022735596 -0.22353899478912354 0.7416359782218933 -0.537755012512207 -0.4009929895401001
          0.8090149760246277 -0.443244993686676 -0.3860430121421814 -0.9503899812698364 -0.2896899878978729 0.11330699920654297
          0.5440750122070312 -0.8366510272026062 0.06322500109672546 -0.029086999595165253 -0.2915869951248169 -0.9561020135879517
          0.5926420092582703 -0.7529680132865906 0.2860319912433624 -0.6737179756164551 0.24984300136566162 -0.6954730153083801