<?xml version="1.0"?>
<VTKFile type="PolyData" version="0.1" byte_order="LittleEndian" header_type="UInt32" compressor="vtkZLibDataCompressor">
  <PolyData>
    <Piece NumberOfPoints="87" NumberOfVerts="0" NumberOfLines="0" NumberOfStrips="0" NumberOfPolys="170">
      <PointData Normals="Normals">
        <DataArray type="Float32" Name="Normals" NumberOfComponents="3" format="ascii" RangeMin="0.9999994823799915" RangeMax="1.0000006118160922">
          0.5770400166511536 0.7935699820518494 0.19305899739265442 0.8694630265235901 0.41709500551223755 0.2646990120410919
          0.6282190084457397 0.07208000123500824 0.7746909856796265 0.7525290250778198 0.4894010126590729 -0.44066599011421204
          0.17271600663661957 0.9622189998626709 -0.21048399806022644 0.23890399932861328 0.6772720217704773 0.6958649754524231
          0.9925040006637573 0.009920000098645687 0.12180899828672409 0.6864110231399536 -0.5566980242729187 0.4678960144519806
          0.28992000222206116 -0.5984290242195129 0.746878981590271 -0.09240899980068207 -0.11045300215482712 0.989575982093811
          0.901561975479126 -0.37240201234817505 0.22023500502109528 -0.16418400406837463 0.4652929902076721 -0.8697959780693054
          -0.13103699684143066 -0.12231700122356415 -0.9838029742240906 0.5413299798965454 -0.09965799748897552 -0.8348829746246338
          0.9572150111198425 -0.2779200077056885 -0.0806180015206337 0.9138129949569702 -0.38785600662231445 -0.12047500163316727
          0.9451079964637756 -0.2695789933204651 -0.18465599417686462 -0.006062000058591366 0.6524850130081177 0.7577769756317139
          0.18930399417877197 0.9780619740486145 -0.08694499731063843 -0.31189700961112976 0.223798006772995 0.9233819842338562
          0.20160800218582153 -0.94855797290802 0.2441139966249466 0.6675969958305359 -0.7433620095252991 -0.04157400131225586
          -0.4134190082550049 -0.8338450193405151 0.36577001214027405 -0.8244670033454895 -0.3536030054092407 0.44183701276779175
          -0.14682500064373016 0.31835898756980896 -0.9365310072898865 -0.4459039866924286 -0.8942360281944275 0.038881998509168625
          -0.7537059783935547 -0.5262330174446106 -0.3937090039253235 -0.5415319800376892 -0.6943899989128113 -0.4738830029964447
          -0.17405299842357635 -0.9152950048446655 -0.3632360100746155 0.5028799772262573 -0.6866790056228638 -0.5249599814414978
          0.7399539947509766 -0.47341299057006836 -0.47785699367523193 0.8380429744720459 -0.48743900656700134 0.24512599408626556
          0.7629330158233643 -0.6459670066833496 -0.025699999183416367 -0.22244000434875488 0.14246200025081635 0.9644820094108582
          0.2787550091743469 0.5774319767951965 0.7673779726028442 0.03511999920010567 -0.3462280035018921 0.9374930262565613
          0.03226900100708008 0.6597440242767334 -0.7507969737052917 0.2705889940261841 0.962414026260376 -0.023246999830007553
          -0.5663579702377319 -0.1755709946155548 0.8052409887313843 0.3868919909000397 -0.847419023513794 0.3635860085487366
          -0.33009400963783264 -0.7020490169525146 0.6310030221939087 0.673550009727478 -0.6024770140647888 0.4281960129737854
          -0.5273820161819458 -0.6414110064506531 0.5571889877319336 -0.20659400522708893 -0.6478570103645325 -0.7332130074501038
          -0.613332986831665 -0.5540570020675659 0.5628880262374878 0.15271399915218353 -0.9134359955787659 0.3772430121898651
          -0.5329480171203613 -0.47384798526763916 0.7010239958763123 -0.8877900242805481 -0.4071600139141083 0.2145940065383911
          0.3939880132675171 -0.9177889823913574 -0.04936499893665314 0.2975519895553589 -0.6152769923210144 0.729997992515564
          0.7263339757919312 -0.5326370000839233 0.43443799018859863 0.6495869755744934 0.6675080060958862 0.3639639914035797
          0.2882699966430664 -0.2815079987049103 0.9152340292930603 0.36668598651885986 0.0886479988694191 0.9261119961738586
          0.545710027217865 -0.30013298988342285 0.782380998134613 0.2681939899921417 0.18440300226211548 -0.9455509781837463
          0.40267300605773926 0.9124760031700134 -0.07240000367164612 0.2568640112876892 -0.9500010013580322 -0.1775369942188263
          0.3917750120162964 -0.6619399785995483 0.6390209794044495 0.3224549889564514 0.9231259822845459 -0.20942999422550201
          -0.14499199390411377 0.9842399954795837 0.10123199969530106 0.12029500305652618 0.9023550152778625 0.41386500000953674
          0.23101699352264404 0.6597809791564941 0.7150670289993286 0.5065320134162903 -0.014051999896764755 0.86210697889328
          0.16033299267292023 -0.8378880023956299 0.5217639803886414 0.16362200677394867 -0.5326449871063232 0.8303719758987427
          0.4839949905872345 -0.2890619933605194 0.8259490132331848 -0.8132290244102478 0.5551720261573792 -0.1744759976863861
          -0.1924629956483841 -0.1491529941558838 -0.9699029922485352 0.2010989934206009 -0.5389569997787476 -0.8179759979248047
          0.44010698795318604 -0.6753110289573669 -0.5918279886245728 0.2747820019721985 -0.8817949891090393 -0.3833169937133789
          0.26699599623680115 -0.9400950074195862 -0.2119790017604828 0.07295099645853043 -0.994504988193512 0.07508999854326248
          -0.6711300015449524 0.6589549779891968 0.33965200185775757 -0.7318500280380249 0.5470420122146606 0.4063740074634552
          -0.4022130072116852 -0.013864999637007713 0.9154409766197205 0.10920099914073944 -0.3791069984436035 0.9188870191574097
          -0.19345200061798096 -0.7018409967422485 0.685562014579773 -0.9500859975814819 0.10210499912500381 -0.29480600357055664
          0.29769399762153625 -0.7662580013275146 -0.5694090127944946 -0.19519400596618652 -0.7402729988098145 -0.6433470249176025
          0.2607479989528656 -0.9172430038452148 -0.3011229932308197 -0.21512100100517273 -0.9257929921150208 -0.3108539879322052
          -0.6024199724197388 -0.7697290182113647 0.21120500564575195 -0.9134929776191711 0.030647000297904015 0.4056990146636963
          -0.8893010020256042 -0.36298200488090515 -0.27818799018859863
          <InformationKey name="L2_NORM_RANGE" location="vtkDataArray" length="2">
            <Value index="0">
              0.99999948238
            </Value>
            <Value index="1">
              1.0000006118
            </Value>
          </InformationKey>
        </DataArray>
      </PointData>
      <CellData>
      </CellData>
      <Points>
        <DataArray type="Float32" Name="Points" NumberOfComponents="3" format="ascii" RangeMin="0.04284792344577875" RangeMax="0.05740619612500469">
          -0.0065020001493394375 0.0013889999827370048 -0.044319998472929 -0.0057680001482367516 0.0006680000224150717 -0.04434699937701225
          -0.0065460000187158585 -0.0021150000393390656 -0.04255500063300133 -0.005913999862968922 -0.0000670000008540228 -0.04663800075650215
          -0.008553000167012215 0.0020920000970363617 -0.044916000217199326 -0.007720999885350466 0.0019249999895691872 -0.04380900040268898
          -0.005357999820262194 -0.0012339999666437507 -0.044815998524427414 -0.006945999804884195 -0.003441999899223447 -0.042725998908281326
          -0.0078039998188614845 -0.003653000108897686 -0.04216200113296509 -0.00963400024920702 -0.0032130000181496143 -0.04162700101733208
          -0.005733000114560127 -0.002428000094369054 -0.04431400075554848 -0.012070000171661377 -0.0006709999870508909 -0.04952000081539154
          -0.009684000164270401 -0.0014990000054240227 -0.05000999942421913 -0.0069149998016655445 -0.0027830000035464764 -0.04980599880218506
          -0.006238999776542187 -0.002887000096961856 -0.048114001750946045 -0.006027999799698591 -0.0021460000425577164 -0.047196999192237854
          -0.005528000183403492 -0.0017790000420063734 -0.045965999364852905 -0.011270999908447266 0.0016499999910593033 -0.04329700022935867
          -0.013330000452697277 0.002196999965235591 -0.04464200139045715 -0.010793999768793583 0.0007280000136233866 -0.042805999517440796
          -0.007903000339865685 -0.004149999935179949 -0.0428990013897419 -0.006527999881654978 -0.0035989999305456877 -0.044110000133514404
          -0.009499000385403633 -0.0037249999586492777 -0.0423399992287159 -0.01015700027346611 -0.002655999967828393 -0.04189300164580345
          -0.016078000888228416 0.0024999999441206455 -0.04675599932670593 -0.01614600047469139 -0.0016080000204965472 -0.045635998249053955
          -0.012556999921798706 -0.0037769998889416456 -0.04772699996829033 -0.011373000219464302 -0.006016999948769808 -0.047157999128103256
          -0.009848999790847301 -0.006591999903321266 -0.047352999448776245 -0.0075079998932778835 -0.00532899983227253 -0.0484669990837574
          -0.006940000224858522 -0.004368999972939491 -0.04896499961614609 -0.0064570000395178795 -0.0029100000392645597 -0.04728899896144867
          -0.006345000118017197 -0.0026310000102967024 -0.046737998723983765 -0.011332999914884567 0.0004720000142697245 -0.04307600110769272
          -0.023361999541521072 0.003476999932900071 -0.041019998490810394 -0.013736999593675137 0.00036100001307204366 -0.04293400049209595
          -0.023434000089764595 0.004182000178843737 -0.04569799825549126 -0.021053999662399292 0.00407399982213974 -0.044422999024391174
          -0.010897000320255756 -0.0006849999772384763 -0.04287299886345863 -0.008844000287353992 -0.004240000154823065 -0.045910999178886414
          -0.009464000351727009 -0.004242999944835901 -0.04569000005722046 -0.007127999793738127 -0.00342399999499321 -0.046831998974084854
          -0.010811000131070614 -0.0026740001048892736 -0.044906001538038254 -0.024362999945878983 -0.0008069999748840928 -0.04387100040912628
          -0.012016000226140022 -0.004083000123500824 -0.04682200029492378 -0.024299999698996544 -0.0007440000190399587 -0.042555999010801315
          -0.011071999557316303 -0.005903000012040138 -0.046250998973846436 -0.012276999652385712 -0.004910000134259462 -0.047230999916791916
          -0.008744999766349792 -0.006432999856770039 -0.047513000667095184 -0.009461999870836735 -0.006289999932050705 -0.04631200060248375
          -0.0075240000151097775 -0.005377000197768211 -0.047136999666690826 -0.028869999572634697 0.005915000103414059 -0.041039999574422836
          -0.01942499913275242 0.0009660000214353204 -0.041499000042676926 -0.025169000029563904 0.0011399999493733048 -0.03948900103569031
          -0.02833300083875656 -0.0004039999912492931 -0.03794100135564804 -0.02739500068128109 0.005243000108748674 -0.04475200176239014
          -0.028224999085068703 0.006310999859124422 -0.04327699914574623 -0.029848000034689903 -0.0019280000124126673 -0.04079199954867363
          -0.025429999455809593 0.00042799999937415123 -0.03952199965715408 -0.03136799857020378 0.008209999650716782 -0.043441999703645706
          -0.031000999733805656 0.008462999947369099 -0.041273001581430435 -0.030691999942064285 0.00808900035917759 -0.040119998157024384
          -0.030635999515652657 0.007393999956548214 -0.038860999047756195 -0.030799999833106995 0.000986000057309866 -0.03550200164318085
          -0.03165299817919731 -0.001398000051267445 -0.037675000727176666 -0.030628999695181847 -0.0003549999964889139 -0.036045998334884644
          -0.030364999547600746 0.0004830000107176602 -0.03600800037384033 -0.03256399929523468 0.006713000126183033 -0.0455860011279583
          -0.03392200171947479 0.0035290000960230827 -0.04617699980735779 -0.033121999353170395 -0.0004959999932907522 -0.044210001826286316
          -0.031975001096725464 -0.0014720000326633453 -0.04258099943399429 -0.03127399832010269 -0.001803999999538064 -0.04174400120973587
          -0.032669998705387115 -0.0022780001163482666 -0.04115299880504608 -0.03363899886608124 -0.0027759999502450228 -0.04038099944591522
          -0.03130900114774704 0.007788000162690878 -0.03997600078582764 -0.031223999336361885 0.007025999948382378 -0.038892000913619995
          -0.03284899890422821 0.0016680000117048621 -0.03543899953365326 -0.03110400028526783 0.00044999999227002263 -0.035739999264478683
          -0.033348001539707184 -0.0008510000188834965 -0.03646500036120415 -0.03465700149536133 0.0002300000051036477 -0.044461000710725784
          -0.0328419990837574 -0.0018220000201836228 -0.04302399978041649 -0.03459800034761429 -0.0019710001070052385 -0.042955998331308365
          -0.0330049991607666 -0.0023769999388605356 -0.041808001697063446 -0.034908000379800797 -0.002553999889642 -0.0419280007481575
          -0.03537699952721596 -0.0024820000398904085 -0.0410120002925396 -0.03443099930882454 -0.0002640000020619482 -0.03687399998307228
          -0.03551900014281273 -0.0021589999087154865 -0.04184899851679802
          <InformationKey name="L2_NORM_RANGE" location="vtkDataArray" length="2">
            <Value index="0">
              0.042847923446
            </Value>
            <Value index="1">
              0.057406196125
            </Value>
          </InformationKey>
        </DataArray>
      </Points>
      <Verts>
        <DataArray type="Int64" Name="connectivity" format="ascii" RangeMin="1e+299" RangeMax="-1e+299">
        </DataArray>
        <DataArray type="Int64" Name="offsets" format="ascii" RangeMin="1e+299" RangeMax="-1e+299">
        </DataArray>
      </Verts>
      <Lines>
        <DataArray type="Int64" Name="connectivity" format="ascii" RangeMin="1e+299" RangeMax="-1e+299">
        </DataArray>
        <DataArray type="Int64" Name="offsets" format="ascii" RangeMin="1e+299" RangeMax="-1e+299">
        </DataArray>
      </Lines>
      <Strips>
        <DataArray type="Int64" Name="connectivity" format="ascii" RangeMin="1e+299" RangeMax="-1e+299">
        </DataArray>
        <DataArray type="Int64" Name="offsets" format="ascii" RangeMin="1e+299" RangeMax="-1e+299">
        </DataArray>
      </Strips>
      <Polys>
        <DataArray type="Int32" Name="connectivity" format="ascii" RangeMin="0" RangeMax="86">
          2 1 0 4 0 3
          0 4 5 0 5 2
          3 0 1 1 2 6
          3 1 6 8 7 2
          2 5 9 9 8 2
          10 6 2 10 2 7
          4 3 11 12 11 3
          12 3 13 3 14 13
          3 15 14 16 15 3
          6 16 3 5 4 17
          18 17 4 11 18 4
          5 19 9 5 17 19
          16 6 10 20 7 8
          20 21 7 21 10 7
          8 22 20 22 8 9
          22 9 23 23 9 19
          21 16 10 25 24 11
          24 18 11 11 26 25
          26 11 12 28 27 12
          12 29 28 12 13 29
          27 26 12 13 30 29
          14 30 13 30 14 29
          31 14 15 29 14 31
          15 16 21 32 15 21
          32 31 15 17 33 19
          18 34 17 17 34 35
          33 17 35 18 24 36
          34 18 37 36 37 18
          19 33 38 19 38 23
          20 40 39 21 20 39
          22 40 20 41 32 21
          21 39 41 40 22 23
          40 23 42 42 23 38
          36 24 43 43 24 25
          42 25 40 44 25 26
          25 45 43 40 25 44
          35 45 25 42 35 25
          26 46 44 46 26 47
          27 47 26 46 47 27
          46 27 28 29 48 28
          49 46 28 28 48 49
          29 31 50 29 50 48
          41 31 32 41 50 31
          33 35 38 51 34 37
          35 34 52 53 52 34
          34 54 53 34 51 54
          35 52 45 35 42 38
          37 36 55 36 43 55
          56 51 37 55 56 37
          40 49 39 49 41 39
          46 49 40 40 44 46
          41 49 50 55 43 57
          45 57 43 57 45 58
          58 45 52 49 48 50
          59 51 56 59 60 51
          51 60 61 62 51 61
          51 62 63 54 51 63
          58 52 53 53 54 58
          57 54 64 57 58 54
          64 54 65 65 54 66
          66 54 63 67 59 55
          69 68 55 55 59 56
          67 55 68 69 55 70
          70 55 57 70 57 71
          71 57 72 73 72 57
          64 73 57 60 59 67
          74 61 60 60 67 74
          75 62 61 74 75 61
          62 75 76 62 76 63
          63 76 77 77 66 63
          78 73 64 76 64 65
          76 78 64 77 65 66
          77 76 65 79 67 68
          75 74 67 67 79 75
          69 79 68 81 69 80
          69 70 80 69 81 79
          70 82 80 70 71 82
          71 72 82 72 73 82
          73 83 82 84 83 73
          78 84 73 79 76 75
          78 76 85 79 85 76
          84 78 85 79 81 86
          86 85 79 80 82 81
          86 81 83 82 83 81
          84 86 83 84 85 86
        </DataArray>
        <DataArray type="Int32" Name="offsets" format="ascii" RangeMin="3" RangeMax="510">
          3 6 9 12 15 18
          21 24 27 30 33 36
          39 42 45 48 51 54
          57 60 63 66 69 72
          75 78 81 84 87 90
          93 96 99 102 105 108
          111 114 117 120 123 126
          129 132 135 138 141 144
          147 150 153 156 159 162
          165 168 171 174 177 180
          183 186 189 192 195 198
          201 204 207 210 213 216
          219 222 225 228 231 234
          237 240 243 246 249 252
          255 258 261 264 267 270
          273 276 279 282 285 288
          291 294 297 300 303 306
          309 312 315 318 321 324
          327 330 333 336 339 342
          345 348 351 354 357 360
          363 366 369 372 375 378
          381 384 387 390 393 396
          399 402 405 408 411 414
          417 420 423 426 429 432
          435 438 441 444 447 450
          453 456 459 462 465 468
          471 474 477 480 483 486
          489 492 495 498 501 504
          507 510
        </DataArray>
      </Polys>
    </Piece>
  </PolyData>
</VTKFile>
