<?xml version="1.0"?>
<VTKFile type="PolyData" version="0.1" byte_order="LittleEndian" header_type="UInt32" compressor="vtkZLibDataCompressor">
  <PolyData>
    <Piece NumberOfPoints="95" NumberOfVerts="0" NumberOfLines="0" NumberOfStrips="0" NumberOfPolys="186">
      <PointData Normals="Normals">
        <DataArray type="Float32" Name="Normals" NumberOfComponents="3" format="ascii" RangeMin="0.9999993296743717" RangeMax="1.0000005802716379">
          0.664680004119873 0.6259989738464355 0.40783101320266724 0.34594500064849854 0.48360198736190796 0.8040220141410828
          0.6581659913063049 0.28175899386405945 0.6981610059738159 0.40076300501823425 0.9050279855728149 0.14252500236034393
          0.5162280201911926 0.8486229777336121 -0.11552999913692474 -0.0311840008944273 0.969989001750946 0.24114100635051727
          0.2730560004711151 0.558184027671814 0.783499002456665 0.09378600120544434 0.8227239847183228 0.5606499910354614
          0.3005309998989105 0.34425899386405945 0.8894749879837036 0.2803019881248474 0.8331400156021118 0.47676900029182434
          0.3330000042915344 -0.006486999802291393 0.9429050087928772 0.5843409895896912 -0.43174898624420166 0.6871230006217957
          0.5396109819412231 0.09791799634695053 0.836201012134552 0.20361599326133728 0.6714180111885071 -0.7125579714775085
          -0.08715199679136276 0.37371501326560974 -0.9234399795532227 0.3326460123062134 0.5336719751358032 -0.7775220274925232
          0.10420800000429153 0.9522479772567749 -0.28699299693107605 -0.6907899975776672 0.5804600119590759 0.4311330020427704
          -0.7952560186386108 0.5997769832611084 -0.08851800113916397 -0.38309401273727417 -0.1357640027999878 0.913677990436554
          -0.7503439784049988 0.45783498883247375 0.4768329858779907 0.3368160128593445 -0.2989799976348877 0.8928419947624207
          -0.033587999641895294 0.7945730090141296 -0.6062380075454712 0.22698399424552917 0.5054119825363159 0.832489013671875
          0.1406009942293167 0.9900050163269043 0.01105900015681982 0.4391289949417114 -0.72257000207901 0.533909022808075
          0.1696300059556961 -0.910082995891571 0.37811899185180664 0.267316997051239 -0.9380180239677429 -0.22059699892997742
          0.16102999448776245 -0.6606289744377136 0.7332389950752258 0.5486829876899719 -0.32454100251197815 0.77046799659729
          0.2830770015716553 -0.34443899989128113 0.895114004611969 0.08243300020694733 0.14033399522304535 -0.9866669774055481
          -0.12441200017929077 0.08093400299549103 -0.9889240264892578 0.03941800072789192 -0.6952250003814697 -0.717710018157959
          -0.176596000790596 -0.7316269874572754 -0.6584349870681763 -0.46083399653434753 -0.880698025226593 -0.10955899953842163
          0.07502900063991547 -0.26180499792099 -0.9621999859809875 -0.092739999294281 0.33914700150489807 -0.9361510276794434
          0.3528119921684265 -0.01681400090456009 -0.9355430006980896 -0.9654099941253662 0.16239699721336365 -0.20398999750614166
          0.10166899859905243 -0.5250040292739868 0.8450049757957458 -0.1899300068616867 -0.8098589777946472 0.5550270080566406
          -0.9207159876823425 -0.054482001811265945 0.38641101121902466 0.1876019984483719 -0.9791979789733887 0.07730799913406372
          0.0007590000168420374 -0.3954229950904846 0.9184989929199219 0.10935799777507782 0.6379920244216919 -0.7622380256652832
          -0.3469089865684509 0.06007099896669388 -0.9359729886054993 -0.037539999932050705 0.46124398708343506 0.8864790201187134
          0.32723501324653625 0.7445840239524841 0.5818179845809937 0.2837049961090088 0.8741589784622192 -0.39415499567985535
          0.08397000283002853 -0.9860420227050781 -0.14377300441265106 0.23406699299812317 -0.7960330247879028 -0.5581619739532471
          0.3243680000305176 -0.6712639927864075 -0.6664760112762451 0.2106959968805313 -0.8509029746055603 -0.48121801018714905
          -0.2908119857311249 -0.7912909984588623 0.537854015827179 -0.5257070064544678 -0.39273801445961 0.7545779943466187
          -0.717395007610321 -0.5319160223007202 -0.44989898800849915 -0.5528740286827087 -0.7335739731788635 0.395220011472702
          0.17358799278736115 -0.3755500018596649 -0.9104009866714478 -0.37483400106430054 -0.12247899919748306 -0.9189659953117371
          0.22349999845027924 -0.15226000547409058 -0.9627379775047302 -0.8762369751930237 -0.32821500301361084 -0.3528229892253876
          -0.1431809961795807 -0.6487839818000793 -0.7473809719085693 -0.5889359712600708 -0.8053330183029175 0.06776700168848038
          -0.5134850144386292 -0.3150379955768585 0.7981759905815125 -0.209647998213768 -0.003659999929368496 0.9777699708938599
          0.7845600247383118 0.5098119974136353 -0.35292699933052063 0.3511210083961487 0.16053999960422516 -0.9224650263786316
          -0.18709400296211243 -0.28606700897216797 -0.9397670030593872 -0.27608099579811096 0.07895900309085846 0.9578859806060791
          0.6106280088424683 -0.0789790004491806 0.7879689931869507 0.8382499814033508 0.4053570032119751 0.3647240102291107
          -0.3725839853286743 -0.4933589994907379 0.7859879732131958 0.25025999546051025 -0.847241997718811 -0.4685620069503784
          -0.1334809958934784 -0.8665400147438049 -0.4809280037879944 0.3171440064907074 -0.7103859782218933 -0.6283090114593506
          0.46988600492477417 -0.8574479818344116 0.20973500609397888 -0.2689400017261505 -0.46905800700187683 0.8412230014801025
          0.2088329941034317 -0.9735109806060791 0.0930899977684021 -0.781906008720398 -0.3427410125732422 0.5207229852676392
          -0.49391499161720276 -0.7228839993476868 -0.4832040071487427 0.8149359822273254 -0.34593498706817627 -0.46498098969459534
          0.9420469999313354 -0.2848280072212219 -0.17726099491119385 0.9959989786148071 -0.06681899726390839 0.05934799835085869
          -0.10402700304985046 -0.9683390259742737 -0.22693200409412384 0.6634939908981323 -0.6279789805412292 -0.4067150056362152
          0.2988530099391937 -0.8707519769668579 -0.3904849886894226 0.6857280135154724 -0.6118919849395752 0.39416301250457764
          0.35624998807907104 -0.6256340146064758 0.6940230131149292 0.9025530219078064 -0.39394301176071167 0.17380200326442719
          0.7846480011940002 -0.5532770156860352 0.27966299653053284 0.35518500208854675 -0.7090809941291809 0.6091369986534119
          0.7919210195541382 -0.5648130178451538 -0.23205099999904633 0.6720179915428162 -0.735185980796814 -0.0888419970870018
          0.6919310092926025 -0.6293789744377136 0.3537130057811737
          <InformationKey name="L2_NORM_RANGE" location="vtkDataArray" length="2">
            <Value index="0">
              0.99999932967
            </Value>
            <Value index="1">
              1.0000005803
            </Value>
          </InformationKey>
        </DataArray>
      </PointData>
      <CellData>
      </CellData>
      <Points>
        <DataArray type="Float32" Name="Points" NumberOfComponents="3" format="ascii" RangeMin="0.03060382748906963" RangeMax="0.04145719430442264">
          -0.017121000215411186 0.0038300000596791506 -0.02895900048315525 -0.014654000289738178 0.0015849999617785215 -0.02837499976158142
          -0.016806000843644142 0.0005409999866969883 -0.026926999911665916 -0.016405999660491943 0.004652999807149172 -0.03121500089764595
          -0.018974000588059425 0.006238999776542187 -0.03101000003516674 -0.019435999915003777 0.0064929998479783535 -0.02879899926483631
          -0.019067000597715378 0.00495600001886487 -0.02645700052380562 -0.019121000543236732 0.005903999786823988 -0.027652999386191368
          -0.011225000023841858 0.0013849999522790313 -0.029249999672174454 -0.0068720001727342606 0.00216599996201694 -0.0314750000834465
          -0.013113999739289284 -0.001366000040434301 -0.0281009990721941 -0.016462000086903572 -0.003317000111564994 -0.026822999119758606
          -0.018712999299168587 -0.0005849999724887311 -0.024209000170230865 -0.01547400001436472 0.00381199992261827 -0.03292800113558769
          -0.011339000426232815 0.002529999939724803 -0.034306999295949936 -0.019241999834775925 0.005055000074207783 -0.03305299952626228
          -0.019780000671744347 0.006604999769479036 -0.031120000407099724 -0.019770000129938126 0.005551000125706196 -0.027567999437451363
          -0.020975999534130096 0.005396000109612942 -0.03365200012922287 -0.021344000473618507 -0.0016830000095069408 -0.023938000202178955
          -0.01968199945986271 0.00456500006839633 -0.02656799927353859 -0.011235999874770641 -0.001155999954789877 -0.02869899943470955
          -0.0036989999935030937 0.0014959999825805426 -0.03522700071334839 -0.002824000082910061 0.00009999999747378752 -0.031362999230623245
          0.0003980000037699938 0.0008609999786131084 -0.03437900170683861 -0.01337399985641241 -0.0021100000012665987 -0.02826800011098385
          -0.019965000450611115 -0.004470000043511391 -0.026791999116539955 -0.0179820004850626 -0.004435999784618616 -0.03010600060224533
          -0.018933000043034554 -0.003647000063210726 -0.0248819999396801 -0.018672000616788864 -0.0027719999197870493 -0.024687999859452248
          -0.019153999164700508 -0.002343999920412898 -0.024080000817775726 -0.017559999600052834 0.003926999866962433 -0.033225998282432556
          -0.016196999698877335 0.002449000021442771 -0.03337400034070015 -0.01753699965775013 -0.0037320000119507313 -0.03144599869847298
          -0.012136000208556652 -0.0026110000908374786 -0.03300999850034714 -0.0018840000266209245 -0.003860000055283308 -0.0365619994699955
          -0.01674799993634224 0.000012000000424450263 -0.03284600004553795 -0.021712999790906906 0.003848999971523881 -0.03478199988603592
          -0.02011599950492382 0.0020200000144541264 -0.03392399847507477 -0.023065000772476196 -0.0016250000335276127 -0.03366699814796448
          -0.019460000097751617 -0.0028689999599009752 -0.02442999929189682 -0.021795999258756638 -0.004145999904721975 -0.02546600066125393
          -0.022950999438762665 -0.0034799999557435513 -0.025814000517129898 -0.01209499966353178 -0.002776999957859516 -0.0316229984164238
          -0.0009389999904669821 -0.0013760000001639128 -0.031683001667261124 0.003082999959588051 -0.001883000019006431 -0.038809001445770264
          0.00008299999899463728 -0.0012039999710395932 -0.03820300102233887 0.00164899998344481 0.000058000001445179805 -0.031870998442173004
          0.006155999843031168 0.0004459999909158796 -0.03263000026345253 0.005805999971926212 0.00010900000052060932 -0.03529899939894676
          -0.02198999933898449 -0.0054709999822080135 -0.029908999800682068 -0.01947999931871891 -0.0041669998317956924 -0.031112000346183777
          -0.020215999335050583 -0.0036849998869001865 -0.031943000853061676 -0.02096099965274334 -0.004794000182300806 -0.03060699999332428
          0.003625999903306365 -0.005568999797105789 -0.035078998655080795 0.00043799998820759356 -0.005253000184893608 -0.036100998520851135
          -0.0004990000161342323 -0.004794999957084656 -0.03689900040626526 0.002177000045776367 -0.004114000126719475 -0.03409099951386452
          -0.021425999701023102 -0.0023980000987648964 -0.03349899873137474 -0.02233099937438965 0.0021440000273287296 -0.03486299887299538
          -0.021831000223755836 0.0015529999509453773 -0.03478600084781647 -0.023972000926733017 -0.004602999892085791 -0.03137600049376488
          -0.02298000082373619 -0.004191000014543533 -0.03248099982738495 -0.02382900007069111 -0.0050860000774264336 -0.0305550005286932
          0.002094999887049198 -0.0024399999529123306 -0.03179199993610382 0.0016090000281110406 -0.0012069999938830733 -0.03182400017976761
          0.007457000203430653 -0.000986000057309866 -0.03538300096988678 0.0064849997870624065 -0.0032629999332129955 -0.03911599889397621
          0.0027779999654740095 -0.0031709999311715364 -0.03879600018262863 0.00216599996201694 -0.0009889999637380242 -0.03152500092983246
          0.006744000129401684 -0.0038999998942017555 -0.031605999916791916 0.007544999942183495 -0.0006419999990612268 -0.032924000173807144
          0.003470000112429261 -0.005284999962896109 -0.030928000807762146 -0.021734999492764473 -0.004867999814450741 -0.03087100014090538
          -0.023313000798225403 -0.004989000037312508 -0.03151499852538109 -0.02112000063061714 -0.0039900001138448715 -0.03248700127005577
          0.005036999937146902 -0.0053369998931884766 -0.03556099906563759 0.0015770000172778964 -0.0072200000286102295 -0.03578300029039383
          0.005359000060707331 -0.005979000125080347 -0.03229999914765358 -0.00013699999544769526 -0.006053000222891569 -0.0365619994699955
          0.0008370000286959112 -0.007319000083953142 -0.03640099987387657 0.006812999956309795 -0.004863000009208918 -0.038458000868558884
          0.007395000196993351 -0.0030580000020563602 -0.0363209992647171 0.008042999543249607 -0.002520000096410513 -0.03367700055241585
          0.0029700000304728746 -0.007879000157117844 -0.03670499846339226 0.0063299997709691525 -0.005919999908655882 -0.03800100088119507
          0.00433199992403388 -0.0074720000848174095 -0.03713500127196312 0.006357999984174967 -0.005255000200122595 -0.031991999596357346
          0.005437000188976526 -0.0056039998307824135 -0.03149000182747841 0.007660999894142151 -0.003868000116199255 -0.03338199853897095
          0.006215000059455633 -0.004470000043511391 -0.036139000207185745 0.003541999962180853 -0.007569999899715185 -0.035937998443841934
          0.00747800013050437 -0.003938000183552504 -0.03432599827647209 0.0068350001238286495 -0.0051460000686347485 -0.03339599817991257
          0.005799999926239252 -0.006448000203818083 -0.03673499822616577
          <InformationKey name="L2_NORM_RANGE" location="vtkDataArray" length="2">
            <Value index="0">
              0.030603827489
            </Value>
            <Value index="1">
              0.041457194304
            </Value>
          </InformationKey>
        </DataArray>
      </Points>
      <Verts>
        <DataArray type="Int64" Name="connectivity" format="ascii" RangeMin="1e+299" RangeMax="-1e+299">
        </DataArray>
        <DataArray type="Int64" Name="offsets" format="ascii" RangeMin="1e+299" RangeMax="-1e+299">
        </DataArray>
      </Verts>
      <Lines>
        <DataArray type="Int64" Name="connectivity" format="ascii" RangeMin="1e+299" RangeMax="-1e+299">
        </DataArray>
        <DataArray type="Int64" Name="offsets" format="ascii" RangeMin="1e+299" RangeMax="-1e+299">
        </DataArray>
      </Lines>
      <Strips>
        <DataArray type="Int64" Name="connectivity" format="ascii" RangeMin="1e+299" RangeMax="-1e+299">
        </DataArray>
        <DataArray type="Int64" Name="offsets" format="ascii" RangeMin="1e+299" RangeMax="-1e+299">
        </DataArray>
      </Strips>
      <Polys>
        <DataArray type="Int32" Name="connectivity" format="ascii" RangeMin="0" RangeMax="94">
          2 1 0 4 0 3
          4 5 0 0 6 2
          1 3 0 0 5 7
          6 0 7 9 1 8
          1 9 3 11 10 1
          2 11 1 8 1 10
          6 12 2 11 2 12
          3 14 13 9 14 3
          13 4 3 15 4 13
          16 4 15 4 16 5
          17 7 5 5 16 18
          5 18 17 6 20 19
          6 19 12 20 6 7
          17 20 7 9 8 21
          10 21 8 9 22 14
          24 9 23 22 9 24
          21 23 9 25 21 10
          10 11 25 27 11 26
          27 25 11 26 11 28
          28 11 29 29 11 12
          29 12 30 12 19 30
          31 15 13 32 13 14
          32 31 13 14 34 33
          35 34 14 14 22 35
          32 14 36 33 36 14
          15 38 37 15 31 38
          15 18 16 18 15 37
          20 17 18 18 39 20
          39 18 37 30 19 40
          19 26 28 19 41 26
          41 19 42 40 19 28
          39 19 20 39 42 19
          25 43 21 35 44 21
          43 35 21 23 21 44
          24 45 22 22 45 46
          22 46 35 24 23 47
          47 23 44 48 24 47
          48 49 24 45 24 49
          27 43 25 26 50 27
          41 50 26 52 27 51
          43 27 33 51 27 53
          27 52 33 50 53 27
          40 28 29 40 29 30
          31 36 38 36 31 32
          36 33 52 43 33 34
          35 43 34 55 54 35
          55 35 56 46 56 35
          35 57 44 35 54 57
          58 38 36 52 58 36
          37 60 59 60 37 38
          39 37 59 58 60 38
          61 42 39 58 39 59
          58 62 39 39 62 61
          41 63 50 63 41 42
          63 42 61 44 57 64
          65 44 64 65 47 44
          45 49 66 45 66 67
          45 67 68 45 68 46
          56 46 68 47 65 69
          48 47 69 71 48 70
          70 48 72 48 69 72
          48 71 66 48 66 49
          50 74 73 63 74 50
          53 50 73 51 53 73
          52 51 73 58 52 75
          52 73 75 54 77 76
          54 72 57 54 55 77
          78 54 76 78 72 54
          56 77 55 77 56 79
          56 68 80 80 79 56
          57 72 64 62 58 75
          58 59 60 63 61 74
          61 62 74 75 73 62
          73 74 62 69 65 64
          69 64 72 66 81 67
          66 82 81 66 71 83
          83 82 66 67 81 68
          80 68 84 68 81 85
          68 85 86 68 86 84
          88 87 70 71 70 83
          72 88 70 89 83 70
          89 70 87 88 72 78
          91 90 76 77 91 76
          92 76 90 93 76 92
          93 78 76 80 77 79
          77 80 84 91 77 84
          87 78 93 78 87 88
          82 90 81 90 85 81
          90 82 92 82 83 92
          92 83 89 84 86 91
          85 94 86 94 85 90
          91 86 94 93 89 87
          93 92 89 90 91 94
        </DataArray>
        <DataArray type="Int32" Name="offsets" format="ascii" RangeMin="3" RangeMax="558">
          3 6 9 12 15 18
          21 24 27 30 33 36
          39 42 45 48 51 54
          57 60 63 66 69 72
          75 78 81 84 87 90
          93 96 99 102 105 108
          111 114 117 120 123 126
          129 132 135 138 141 144
          147 150 153 156 159 162
          165 168 171 174 177 180
          183 186 189 192 195 198
          201 204 207 210 213 216
          219 222 225 228 231 234
          237 240 243 246 249 252
          255 258 261 264 267 270
          273 276 279 282 285 288
          291 294 297 300 303 306
          309 312 315 318 321 324
          327 330 333 336 339 342
          345 348 351 354 357 360
          363 366 369 372 375 378
          381 384 387 390 393 396
          399 402 405 408 411 414
          417 420 423 426 429 432
          435 438 441 444 447 450
          453 456 459 462 465 468
          471 474 477 480 483 486
          489 492 495 498 501 504
          507 510 513 516 519 522
          525 528 531 534 537 540
          543 546 549 552 555 558
        </DataArray>
      </Polys>
    </Piece>
  </PolyData>
</VTKFile>
