<?xml version="1.0"?>
<VTKFile type="PolyData" version="0.1" byte_order="LittleEndian" header_type="UInt32" compressor="vtkZLibDataCompressor">
  <PolyData>
    <Piece NumberOfPoints="103" NumberOfVerts="0" NumberOfLines="0" NumberOfStrips="0" NumberOfPolys="202">
      <PointData Normals="Normals">
        <DataArray type="Float32" Name="Normals" NumberOfComponents="3" format="ascii" RangeMin="0.9999993899665798" RangeMax="1.000000708684474">
          0.39257699251174927 0.885250985622406 0.24942700564861298 0.8844349980354309 0.2124119997024536 0.41551899909973145
          0.5039520263671875 -0.008762000128626823 0.8636869788169861 0.14131499826908112 0.5742530226707458 0.8063889741897583
          0.26557600498199463 0.8996220231056213 -0.34662699699401855 0.8413029909133911 0.515067994594574 -0.1640540063381195
          0.010346000082790852 0.9758239984512329 -0.21831199526786804 -0.21760199964046478 0.6302880048751831 -0.7452419996261597
          0.9985830187797546 -0.05313999950885773 0.003034000052139163 0.9015309810638428 -0.2476540058851242 0.35483700037002563
          0.6328049898147583 -0.45093899965286255 0.6294530034065247 0.2156910002231598 -0.339946985244751 0.9153760075569153
          -0.0613120011985302 -0.05725099891424179 0.9964749813079834 -0.18863600492477417 0.3105260133743286 0.931659996509552
          -0.05426200106739998 0.7044280171394348 0.7076990008354187 0.5553929805755615 0.3768230080604553 -0.7413120269775391
          0.9453070163726807 -0.31522899866104126 -0.08381800353527069 0.12464500218629837 0.7752739787101746 0.6192049980163574
          0.1274539977312088 0.9605550169944763 -0.24716299772262573 -0.3630419969558716 -0.7477350234985352 -0.555961012840271
          -0.8041880130767822 -0.4386279881000519 -0.4011079967021942 -0.31459400057792664 -0.1376889944076538 -0.9391869902610779
          0.9186009764671326 -0.3913609981536865 0.05485900118947029 0.6781299710273743 -0.6734480261802673 0.2942909896373749
          0.18499299883842468 -0.8608779907226562 0.47398999333381653 -0.3037939965724945 -0.7192429900169373 0.6248189806938171
          -0.36327698826789856 -0.11709100008010864 0.9242939949035645 0.031106999143958092 0.2527509927749634 0.9670310020446777
          -0.800242006778717 -0.4600360095500946 0.3846819996833801 0.02214300073683262 0.12237299978733063 0.9922369718551636
          0.7184709906578064 -0.28689301013946533 -0.633633017539978 0.8473830223083496 -0.5177590250968933 0.11776100099086761
          0.4074940085411072 -0.8464239835739136 0.34280601143836975 0.39323800802230835 -0.8886340260505676 0.23599599301815033
          0.5609279870986938 -0.7913579940795898 -0.24313199520111084 0.23519599437713623 0.6281139850616455 0.7417250275611877
          0.1753779947757721 0.07025499641895294 0.9819909930229187 0.2755880057811737 0.9166190028190613 0.289588987827301
          -0.005903000012040138 0.6526780128479004 -0.7576119899749756 0.1297989934682846 -0.6863579750061035 -0.7155879735946655
          -0.4697740077972412 -0.7410560250282288 0.4797379970550537 -0.18920600414276123 -0.8369839787483215 0.5134770274162292
          0.4852539896965027 -0.5855370163917542 0.6493650078773499 0.048020001500844955 -0.6312260031700134 0.7741109728813171
          -0.5904480218887329 -0.8057659864425659 0.04596100002527237 -0.5021799802780151 -0.6003659963607788 0.6223949790000916
          -0.7713419795036316 -0.580070972442627 -0.261819988489151 0.422450989484787 -0.7295979857444763 -0.5377939939498901
          -0.06706400215625763 -0.8432040214538574 -0.5333939790725708 -0.3903160095214844 -0.8921359777450562 -0.2274779975414276
          0.17549599707126617 -0.979282021522522 -0.10103800147771835 -0.4818049967288971 -0.8691179752349854 -0.11179599910974503
          -0.23141199350357056 -0.2597169876098633 0.9375470280647278 -0.5398679971694946 -0.4979409873485565 0.6786730289459229
          -0.005547999870032072 -0.8120909929275513 0.5835040211677551 -0.21952100098133087 -0.9339960217475891 -0.28189000487327576
          0.3117949962615967 0.8131489753723145 0.49149999022483826 0.2580299973487854 0.20595300197601318 0.9439299702644348
          0.2458599954843521 0.9170439839363098 -0.31398099660873413 0.14153699576854706 0.5442389845848083 -0.8269039988517761
          0.31212499737739563 -0.02741900086402893 -0.9496449828147888 0.32452601194381714 -0.44871199131011963 -0.8326709866523743
          0.19135400652885437 -0.7753490209579468 -0.6018450260162354 0.21059300005435944 -0.6771690249443054 -0.7050480246543884
          0.051222000271081924 -0.9575260281562805 -0.2837600111961365 0.223471999168396 -0.9683489799499512 0.11117900162935257
          0.2964960038661957 0.1496880054473877 0.9432299733161926 0.29846900701522827 -0.5393159985542297 0.787434995174408
          0.6619359850883484 0.32330599427223206 0.6762499809265137 0.19154399633407593 -0.8501409888267517 0.4904809892177582
          0.3869270086288452 -0.6042100191116333 0.6965759992599487 0.5274180173873901 0.833594024181366 0.16416700184345245
          -0.49310800433158875 0.8578529953956604 0.144678995013237 -0.058462001383304596 0.906728982925415 -0.4176430106163025
          -0.3528420031070709 0.6864240169525146 -0.6358649730682373 0.21870900690555573 0.02898300066590309 -0.9753599762916565
          0.2437949925661087 -0.3402079939842224 -0.9081969857215881 0.21856699883937836 -0.7812359929084778 -0.584721028804779
          0.16794300079345703 -0.792119026184082 -0.5868070125579834 -0.13286200165748596 -0.704459011554718 -0.6971979737281799
          -0.4509409964084625 -0.882889986038208 0.13098600506782532 -0.6290310025215149 -0.7697460055351257 0.10867399722337723
          -0.523410975933075 -0.8225489854812622 -0.22238600254058838 -0.04567300155758858 -0.9831179976463318 0.17717799544334412
          0.20566600561141968 -0.8799300193786621 0.4282819926738739 -0.3562749922275543 -0.19824199378490448 0.9131090044975281
          0.24500299990177155 0.5553200244903564 0.7947279810905457 -0.7554479837417603 0.3909370005130768 0.5257999897003174
          0.03486499935388565 -0.8130069971084595 0.5812100172042847 -0.02391199953854084 -0.7616710066795349 0.64752197265625
          0.48070698976516724 0.7931870222091675 0.373865008354187 -0.39495301246643066 0.768913984298706 0.502776026725769
          -0.9377279877662659 0.26996099948883057 -0.21860499680042267 -0.632070004940033 0.5317869782447815 -0.5636389851570129
          -0.5108659863471985 0.17750400304794312 -0.8411350250244141 -0.07533899694681168 -0.5070620179176331 -0.858610987663269
          -0.6698690056800842 -0.26979100704193115 -0.6917279958724976 -0.9448130130767822 -0.2926560044288635 -0.1472409963607788
          -0.9388949871063232 -0.34415900707244873 -0.005437000188976526 -0.8918949961662292 -0.3134920001029968 0.32595399022102356
          -0.5252839922904968 -0.7945690155029297 0.30452701449394226 0.0009980000322684646 -0.8647649884223938 0.5021770000457764
          -0.6484609842300415 -0.33671000599861145 0.6827329993247986
          <InformationKey name="L2_NORM_RANGE" location="vtkDataArray" length="2">
            <Value index="0">
              0.99999938997
            </Value>
            <Value index="1">
              1.0000007087
            </Value>
          </InformationKey>
        </DataArray>
      </PointData>
      <CellData>
      </CellData>
      <Points>
        <DataArray type="Float32" Name="Points" NumberOfComponents="3" format="ascii" RangeMin="0.012818915188595528" RangeMax="0.033429894151908446">
          0.02088399976491928 -0.00002300000051036477 -0.018417999148368835 0.021643999963998795 -0.000653000024612993 -0.018681000918149948
          0.021138999611139297 -0.002865999937057495 -0.018303999677300453 0.01962199993431568 0.00026000000070780516 -0.017757000401616096
          0.019706999883055687 -0.0006270000012591481 -0.02534100040793419 0.021616000682115555 -0.0005179999861866236 -0.020781999453902245
          0.011754999868571758 0.0012610000558197498 -0.02126700058579445 0.017537999898195267 -0.0005460000247694552 -0.02526099979877472
          0.021990999579429626 -0.002211000071838498 -0.02012299932539463 0.02167299948632717 -0.0025239998940378428 -0.019060999155044556
          0.020796999335289 -0.003826000029221177 -0.018193000927567482 0.01904899999499321 -0.004381000064313412 -0.01758500002324581
          0.01771700009703636 -0.003891000058501959 -0.017405999824404716 0.017470000311732292 -0.00008099999831756577 -0.017945000901818275
          0.017167000100016594 0.0004579999949783087 -0.018378999084234238 0.0203660000115633 -0.0018420000560581684 -0.02644599974155426
          0.021017000079154968 -0.002259999979287386 -0.023723000660538673 0.010950000025331974 0.00042600001324899495 -0.01773199997842312
          0.004900000058114529 0.0020779999904334545 -0.02057100087404251 0.011068999767303467 -0.002483000047504902 -0.022811999544501305
          0.01451599970459938 -0.003464000066742301 -0.02391899935901165 0.018180999904870987 -0.00254100002348423 -0.026465000584721565
          0.02178799919784069 -0.0029090000316500664 -0.019797999411821365 0.020378999412059784 -0.004970999900251627 -0.01909100078046322
          0.018456000834703445 -0.005388000048696995 -0.018303999677300453 0.017517000436782837 -0.005200000014156103 -0.01806499995291233
          0.016301000490784645 -0.0012369999894872308 -0.017618000507354736 0.017023999243974686 -0.001091000041924417 -0.017777999863028526
          0.016961000859737396 -0.004606999922543764 -0.01811799965798855 0.0157919991761446 -0.00023499999952036887 -0.017743999138474464
          0.02032800018787384 -0.003576999995857477 -0.026288000866770744 0.020086999982595444 -0.005086999852210283 -0.024464000016450882
          0.018502000719308853 -0.0061519998125731945 -0.02366200089454651 0.018888000398874283 -0.004488999955356121 -0.02257700078189373
          0.020865000784397125 -0.004602999892085791 -0.020579999312758446 0.0029810001142323017 0.0015399999683722854 -0.016315000131726265
          0.011061999946832657 -0.00032500000088475645 -0.017457999289035797 0.001184999942779541 0.002767999889329076 -0.016985999420285225
          0.0007450000266544521 0.002919000107795 -0.018869999796152115 -0.001534000039100647 -0.003837000112980604 -0.018011000007390976
          0.015426999889314175 -0.004015000071376562 -0.022902000695466995 0.01822800002992153 -0.0045739999040961266 -0.022312000393867493
          -0.0028639999218285084 -0.004224999807775021 -0.014395000413060188 0.011225000023841858 -0.0015750000020489097 -0.01782899908721447
          0.016498999670147896 -0.0033889999613165855 -0.02004300057888031 0.01629900000989437 -0.005392000079154968 -0.023079000413417816
          0.014961999841034412 -0.004645000211894512 -0.023876000195741653 0.019764000549912453 -0.005330000072717667 -0.025616999715566635
          0.018074000254273415 -0.006275999825447798 -0.024762999266386032 0.017045000568032265 -0.006132999900728464 -0.024397000670433044
          0.019457999616861343 -0.005549000110477209 -0.01964399963617325 0.017726000398397446 -0.005390999838709831 -0.018962999805808067
          0.015706000849604607 -0.0013780000153928995 -0.01802399940788746 0.016176000237464905 -0.002486000070348382 -0.018281999975442886
          0.01752699911594391 -0.00610999995842576 -0.02338000014424324 0.018278000876307487 -0.004705999977886677 -0.021333999931812286
          -0.0025949999690055847 0.003476999932900071 -0.016651999205350876 0.0006639999919570982 -0.0013889999827370048 -0.015112999826669693
          -0.0033100000582635403 0.003648000070825219 -0.01801699958741665 -0.0037070000544190407 0.0032339999452233315 -0.018580999225378036
          -0.006275999825447798 -0.0007960000075399876 -0.0193719994276762 -0.006599000189453363 -0.003570999950170517 -0.01895900070667267
          -0.007350000087171793 -0.004885000176727772 -0.017983999103307724 -0.005824000108987093 -0.004143999889492989 -0.01834299974143505
          -0.00841199979186058 -0.00570600014179945 -0.017472999170422554 -0.005750999785959721 -0.005272999871522188 -0.014705999754369259
          -0.005803000181913376 0.000645000021904707 -0.0114120002835989 -0.005758000072091818 -0.004052000120282173 -0.011649000458419323
          -0.0035149999894201756 0.0005159999709576368 -0.01368900015950203 -0.005421999841928482 -0.005018000025302172 -0.012666000053286552
          -0.005210000090301037 -0.004271000158041716 -0.012306000106036663 -0.005164000205695629 0.004648999776691198 -0.01607399992644787
          -0.006016000173985958 0.004966000095009804 -0.016068000346422195 -0.007255000062286854 0.004459000192582607 -0.018549000844359398
          -0.007753999903798103 0.003957999870181084 -0.019363999366760254 -0.007776999846100807 0.0006270000012591481 -0.020323000848293304
          -0.007521000225096941 -0.0037690000608563423 -0.01948300004005432 -0.007691999897360802 -0.004743000026792288 -0.018605999648571014
          -0.008159000426530838 -0.004939999897032976 -0.018208999186754227 -0.009824000298976898 -0.005016000010073185 -0.01875399984419346
          -0.010381000116467476 -0.005179000087082386 -0.016390999779105186 -0.010162999853491783 -0.005423000082373619 -0.017199000343680382
          -0.010400000028312206 -0.005357999820262194 -0.017893999814987183 -0.007962999865412712 -0.005626999773085117 -0.014070999808609486
          -0.007801000028848648 -0.004910999909043312 -0.013036999851465225 -0.00814600009471178 -0.003650000086054206 -0.01129399985074997
          -0.005594000220298767 0.0028409999795258045 -0.012281999923288822 -0.00646300008520484 0.002457000082358718 -0.012357000261545181
          -0.006984999869018793 -0.004652000032365322 -0.012303999625146389 -0.00836899969726801 -0.004621999803930521 -0.012268999591469765
          -0.005386000033468008 0.004459999967366457 -0.014189999550580978 -0.00623599998652935 0.004335000179708004 -0.01385900005698204
          -0.00979200005531311 -0.0012919999426230788 -0.0196090005338192 -0.008585999719798565 0.0027650000993162394 -0.020062999799847603
          -0.008906000293791294 0.0019910000264644623 -0.020238999277353287 -0.00949500035494566 -0.0040699997916817665 -0.01945500075817108
          -0.010619999840855598 -0.00394799979403615 -0.019047999754548073 -0.01056700013577938 -0.004757999908179045 -0.01851700060069561
          -0.010827000252902508 -0.0047519998624920845 -0.016933999955654144 -0.010463999584317207 -0.004728000145405531 -0.014267000369727612
          -0.009699000045657158 -0.004939999897032976 -0.01331700012087822 -0.00841199979186058 -0.0055160000920295715 -0.013199999928474426
          -0.00939099956303835 -0.004662000108510256 -0.012745999731123447
          <InformationKey name="L2_NORM_RANGE" location="vtkDataArray" length="2">
            <Value index="0">
              0.012818915189
            </Value>
            <Value index="1">
              0.033429894152
            </Value>
          </InformationKey>
        </DataArray>
      </Points>
      <Verts>
        <DataArray type="Int64" Name="connectivity" format="ascii" RangeMin="1e+299" RangeMax="-1e+299">
        </DataArray>
        <DataArray type="Int64" Name="offsets" format="ascii" RangeMin="1e+299" RangeMax="-1e+299">
        </DataArray>
      </Verts>
      <Lines>
        <DataArray type="Int64" Name="connectivity" format="ascii" RangeMin="1e+299" RangeMax="-1e+299">
        </DataArray>
        <DataArray type="Int64" Name="offsets" format="ascii" RangeMin="1e+299" RangeMax="-1e+299">
        </DataArray>
      </Lines>
      <Strips>
        <DataArray type="Int64" Name="connectivity" format="ascii" RangeMin="1e+299" RangeMax="-1e+299">
        </DataArray>
        <DataArray type="Int64" Name="offsets" format="ascii" RangeMin="1e+299" RangeMax="-1e+299">
        </DataArray>
      </Strips>
      <Polys>
        <DataArray type="Int32" Name="connectivity" format="ascii" RangeMin="0" RangeMax="102">
          2 1 0 0 3 2
          0 5 4 5 0 1
          0 6 3 0 4 7
          0 7 6 1 9 8
          1 2 9 5 1 8
          2 11 10 2 10 9
          2 12 11 2 3 12
          3 13 12 3 14 13
          14 3 6 5 15 4
          4 15 7 5 8 16
          5 16 15 17 14 6
          6 18 17 18 6 19
          19 6 7 7 21 20
          7 20 19 7 15 21
          16 8 22 22 8 9
          10 23 9 22 9 23
          24 23 10 10 11 24
          25 11 12 25 24 11
          27 26 12 27 12 13
          26 28 12 28 25 12
          13 14 27 29 14 17
          29 27 14 15 30 21
          15 16 30 16 32 31
          16 33 32 34 33 16
          34 16 22 30 16 31
          18 35 17 36 29 17
          35 36 17 37 35 18
          38 37 18 18 19 38
          38 19 39 40 19 20
          41 19 40 42 39 19
          43 42 19 44 19 41
          44 43 19 20 45 40
          46 45 20 46 20 21
          21 30 47 21 47 48
          46 21 49 21 48 49
          34 22 23 23 50 34
          50 23 24 51 24 25
          51 50 24 25 28 51
          29 52 26 29 26 27
          26 52 53 26 53 28
          44 28 53 28 44 51
          29 36 43 52 29 43
          47 30 31 31 32 47
          32 49 48 32 54 49
          32 48 47 54 32 33
          41 54 33 33 55 41
          55 33 34 50 55 34
          57 35 56 56 35 37
          35 57 36 43 36 42
          42 36 57 37 38 56
          56 38 58 59 58 38
          60 59 38 39 60 38
          60 39 61 63 39 62
          63 61 39 64 62 39
          64 39 65 65 39 42
          41 40 45 45 54 41
          41 55 44 67 42 66
          68 66 42 65 42 69
          69 42 70 42 57 68
          70 42 67 43 44 53
          52 43 53 55 51 44
          49 54 45 45 46 49
          51 55 50 71 68 56
          71 56 58 56 68 57
          72 71 58 59 73 58
          58 73 72 73 59 74
          60 74 59 75 74 60
          60 61 76 60 76 75
          61 77 76 61 63 77
          63 62 77 62 64 78
          77 62 78 64 79 78
          81 64 80 82 64 81
          82 79 64 64 65 83
          80 64 83 84 65 69
          84 83 65 66 85 67
          87 66 86 87 85 66
          86 66 68 88 70 67
          67 89 88 67 85 89
          71 90 68 90 86 68
          69 88 84 88 69 70
          71 72 90 90 72 91
          73 74 72 91 72 87
          87 72 92 92 72 74
          75 93 74 92 74 93
          75 94 93 75 92 94
          76 92 75 95 92 76
          76 77 95 77 78 95
          78 79 95 97 96 79
          97 79 82 96 95 79
          80 98 81 83 99 80
          80 99 98 97 81 98
          97 82 81 83 101 100
          101 83 84 100 99 83
          84 88 89 89 101 84
          85 102 89 87 102 85
          87 86 91 86 90 91
          102 87 99 92 99 87
          102 101 89 94 92 93
          92 95 96 92 96 97
          97 98 92 92 98 99
          99 100 102 101 102 100
        </DataArray>
        <DataArray type="Int32" Name="offsets" format="ascii" RangeMin="3" RangeMax="606">
          3 6 9 12 15 18
          21 24 27 30 33 36
          39 42 45 48 51 54
          57 60 63 66 69 72
          75 78 81 84 87 90
          93 96 99 102 105 108
          111 114 117 120 123 126
          129 132 135 138 141 144
          147 150 153 156 159 162
          165 168 171 174 177 180
          183 186 189 192 195 198
          201 204 207 210 213 216
          219 222 225 228 231 234
          237 240 243 246 249 252
          255 258 261 264 267 270
          273 276 279 282 285 288
          291 294 297 300 303 306
          309 312 315 318 321 324
          327 330 333 336 339 342
          345 348 351 354 357 360
          363 366 369 372 375 378
          381 384 387 390 393 396
          399 402 405 408 411 414
          417 420 423 426 429 432
          435 438 441 444 447 450
          453 456 459 462 465 468
          471 474 477 480 483 486
          489 492 495 498 501 504
          507 510 513 516 519 522
          525 528 531 534 537 540
          543 546 549 552 555 558
          561 564 567 570 573 576
          579 582 585 588 591 594
          597 600 603 606
        </DataArray>
      </Polys>
    </Piece>
  </PolyData>
</VTKFile>
