<?xml version="1.0"?>
<VTKFile type="PolyData" version="0.1" byte_order="LittleEndian" header_type="UInt32" compressor="vtkZLibDataCompressor">
  <PolyData>
    <Piece NumberOfPoints="42" NumberOfVerts="0" NumberOfLines="0" NumberOfStrips="0" NumberOfPolys="48">
      <PointData Normals="Normals">
        <DataArray type="Float32" Name="Normals" NumberOfComponents="3" format="ascii" RangeMin="0.9999993428344631" RangeMax="1.000000568494169">
          0.9204239845275879 -0.37408900260925293 0.11347399652004242 0.5948209762573242 -0.7827029824256897 0.1832060068845749
          0.5761229991912842 -0.6867390275001526 -0.44325000047683716 0.9729139804840088 -0.13221000134944916 -0.189627006649971
          0.8330420255661011 -0.14550800621509552 0.5337299704551697 0.3439910113811493 -0.10603100061416626 0.9329670071601868
          0.9900280237197876 -0.08075299859046936 0.11542599648237228 0.9995620250701904 0.028866000473499298 -0.006490999832749367
          0.9535809755325317 -0.02369599975645542 0.30020400881767273 -0.3111779987812042 -0.9453129768371582 -0.09772899746894836
          -0.24858200550079346 -0.7623339891433716 -0.597540020942688 -0.7640119791030884 -0.31604599952697754 0.5624949932098389
          0.37443599104881287 -0.34148499369621277 -0.8620820045471191 0.9330790042877197 0.11230000108480453 -0.34168899059295654
          -0.44106999039649963 -0.3561779856681824 -0.8237680196762085 0.9961550235748291 0.087117999792099 -0.009225999936461449
          0.6662300229072571 0.4083099961280823 0.6240350008010864 0.0704910010099411 0.4933669865131378 0.8669599890708923
          0.9330530166625977 0.19717200100421906 0.3008910119533539 -0.707813024520874 0.5016109943389893 0.49737998843193054
          0.9935060143470764 0.026684999465942383 0.11060799658298492 -0.7713249921798706 -0.40000098943710327 -0.49503201246261597
          -0.7497360110282898 -0.2704800069332123 -0.6039339900016785 -0.8820149898529053 -0.321025013923645 -0.3449519872665405
          -0.6419439911842346 -0.14089800417423248 -0.753695011138916 -0.9115219712257385 0.12090999633073807 -0.39307600259780884
          -0.06422100216150284 0.2671230137348175 -0.9615200161933899 0.8858100175857544 0.25922998785972595 -0.38489100337028503
          -0.5928379893302917 0.38935500383377075 -0.7049440145492554 0.9900979995727539 0.1389019936323166 -0.020291000604629517
          -0.608814001083374 0.3270309865474701 -0.7227699756622314 0.685276985168457 0.7041910290718079 0.18577000498771667
          0.15002000331878662 0.9360619783401489 0.3182480037212372 0.9289529919624329 0.33416301012039185 0.15931199491024017
          -0.5722839832305908 0.8189129829406738 -0.043258000165224075 -0.7310839891433716 0.3865770101547241 -0.562205970287323
          0.9614490270614624 0.2740910053253174 0.022119000554084778 -0.8113290071487427 -0.0669659972190857 -0.5807409882545471
          0.043657999485731125 0.7887709736824036 -0.6131349802017212 0.802727997303009 0.5470960140228271 -0.23730599880218506
          -0.5105350017547607 0.7325609922409058 -0.45023199915885925 -0.63926100730896 0.5363849997520447 -0.5510320067405701
          <InformationKey name="L2_NORM_RANGE" location="vtkDataArray" length="2">
            <Value index="0">
              0.99999934283
            </Value>
            <Value index="1">
              1.0000005685
            </Value>
          </InformationKey>
        </DataArray>
      </PointData>
      <CellData>
      </CellData>
      <Points>
        <DataArray type="Float32" Name="Points" NumberOfComponents="3" format="ascii" RangeMin="0.006187332058809174" RangeMax="0.01387367145800614">
          0.006891000084578991 -0.0014730000402778387 0.0006600000197067857 0.0038900000508874655 -0.005518000107258558 0.0010420000180602074
          0.00496299983933568 -0.0025390000082552433 -0.006517000030726194 0.006978000048547983 -0.00013899999612476677 -0.003091000020503998
          0.005750000011175871 0.0009539999882690609 0.005475999787449837 0.004261000081896782 -0.0017030000453814864 0.007048000115901232
          0.007133999839425087 0.00076299998909235 0.0024049999192357063 0.007075000088661909 0.0009399999980814755 0.0010300000431016088
          0.007015000097453594 0.001339999958872795 0.002983999904245138 -0.009871000424027443 -0.008856000378727913 0.002005999907851219
          -0.006399999838322401 -0.0060640000738203526 -0.004009999800473452 -0.012155000120401382 -0.00443900004029274 0.005003000143915415
          0.0013729999773204327 -0.002228999976068735 -0.01305100042372942 0.006504000164568424 0.0006549999816343188 -0.006020999979227781
          -0.0020469999872148037 -0.002706000115722418 -0.007592999842017889 0.00725100003182888 0.002019000006839633 0.00030700000934302807
          0.005317999981343746 0.0036239998880773783 0.005716000217944384 0.0028260000981390476 0.004695999901741743 0.0070039997808635235
          0.006897000130265951 0.001917000045068562 0.00356299988925457 -0.011220999993383884 0.001353000057861209 0.0012110000243410468
          0.0070569999516010284 0.002068999921903014 0.0020759999752044678 -0.010293999686837196 -0.003840999910607934 -0.0019000000320374966
          -0.008812000043690205 -0.0025220001116394997 -0.00457700015977025 -0.011567000299692154 -0.0035830000415444374 0.0001829999964684248
          -0.0072200000286102295 -0.0016949999844655395 -0.006723999977111816 -0.011552000418305397 -0.0004799999878741801 -0.0013460000045597553
          0.0015640000347048044 0.002099999925121665 -0.01308900024741888 0.005884999874979258 0.0022150001022964716 -0.006998000200837851
          -0.0037299999967217445 0.0008319999906234443 -0.004865999799221754 0.007315999828279018 0.0030330000445246696 0.0005709999823011458
          -0.007726999931037426 0.00007599999662488699 -0.006473999936133623 0.0049149999395012856 0.006043999921530485 0.003450999967753887
          0.0031220000237226486 0.007898000068962574 0.0016410000389441848 0.006800999864935875 0.0030350000597536564 0.0034439999144524336
          -0.005394999869167805 0.005758000072091818 0.0009009999921545386 -0.009971999563276768 0.00044299999717622995 -0.003212000010535121
          0.006965000182390213 0.0035059999208897352 0.0023040000814944506 -0.009487999603152275 -0.0013859999598935246 -0.0035620001144707203
          0.0032629999332129955 0.00609100004658103 -0.00737700005993247 0.006087000016123056 0.004093000199645758 -0.0031659998930990696
          -0.004290000069886446 0.004267000127583742 -0.0026700000744313 -0.00875800009816885 0.0005159999709576368 -0.004443999845534563
          <InformationKey name="L2_NORM_RANGE" location="vtkDataArray" length="2">
            <Value index="0">
              0.0061873320588
            </Value>
            <Value index="1">
              0.013873671458
            </Value>
          </InformationKey>
        </DataArray>
      </Points>
      <Verts>
        <DataArray type="Int64" Name="connectivity" format="ascii" RangeMin="1e+299" RangeMax="-1e+299">
        </DataArray>
        <DataArray type="Int64" Name="offsets" format="ascii" RangeMin="1e+299" RangeMax="-1e+299">
        </DataArray>
      </Verts>
      <Lines>
        <DataArray type="Int64" Name="connectivity" format="ascii" RangeMin="1e+299" RangeMax="-1e+299">
        </DataArray>
        <DataArray type="Int64" Name="offsets" format="ascii" RangeMin="1e+299" RangeMax="-1e+299">
        </DataArray>
      </Lines>
      <Strips>
        <DataArray type="Int64" Name="connectivity" format="ascii" RangeMin="1e+299" RangeMax="-1e+299">
        </DataArray>
        <DataArray type="Int64" Name="offsets" format="ascii" RangeMin="1e+299" RangeMax="-1e+299">
        </DataArray>
      </Strips>
      <Polys>
        <DataArray type="Int32" Name="connectivity" format="ascii" RangeMin="0" RangeMax="41">
          0 1 2 3 4 5
          1 0 6 0 3 7
          8 4 0 6 1 9
          10 2 5 11 9 1
          3 2 12 13 2 10
          14 12 7 3 13 15
          16 17 5 4 18 16
          4 8 17 19 11 5
          20 6 7 20 8 6
          20 7 15 20 18 8
          9 21 22 10 11 23
          21 9 10 22 24 14
          19 25 23 11 13 12
          26 27 12 14 28 26
          15 13 27 29 14 24
          30 28 20 15 29 31
          32 17 16 33 31 16
          18 32 34 19 17 20
          33 18 34 35 25 19
          20 29 36 20 36 33
          22 21 37 21 23 37
          24 22 37 23 25 37
          30 24 37 25 35 37
          27 26 38 39 26 28
          40 38 29 27 39 36
          28 30 41 40 41 30
          37 39 38 32 31 36
          39 31 33 38 40 34
          32 40 41 35 34 35
          41 37
        </DataArray>
        <DataArray type="Int32" Name="offsets" format="ascii" RangeMin="4" RangeMax="176">
          4 8 12 16 20 24
          28 32 36 40 44 48
          51 54 57 60 64 68
          72 76 80 84 88 92
          95 99 103 107 110 114
          117 120 123 126 129 132
          135 138 142 146 150 154
          157 161 165 169 173 176
        </DataArray>
      </Polys>
    </Piece>
  </PolyData>
</VTKFile>
