<?xml version="1.0"?>
<VTKFile type="PolyData" version="0.1" byte_order="LittleEndian" header_type="UInt32" compressor="vtkZLibDataCompressor">
  <PolyData>
    <Piece NumberOfPoints="26" NumberOfVerts="0" NumberOfLines="0" NumberOfStrips="0" NumberOfPolys="32">
      <PointData Normals="Normals">
        <DataArray type="Float32" Name="Normals" NumberOfComponents="3" format="ascii" RangeMin="0.9999994405232789" RangeMax="1.0000006022289636">
          0.07325500249862671 -0.6680750250816345 -0.7404789924621582 -0.7350689768791199 -0.5489969849586487 -0.3978379964828491
          -0.8263769745826721 0.011250000447034836 -0.5630059838294983 0.3061479926109314 -0.2848449945449829 -0.9083700180053711
          0.19979499280452728 -0.5816699862480164 -0.7885059714317322 -0.2440900057554245 -0.9694740176200867 0.023222999647259712
          0.4356499910354614 -0.15572799742221832 -0.886542022228241 -0.7173449993133545 -0.21740800142288208 0.6619290113449097
          -0.7244600057601929 -0.03252600133419037 0.6885489821434021 -0.42053699493408203 -0.376460999250412 0.8254849910736084
          -0.5464820265769958 0.5662909746170044 -0.6169859766960144 0.26767298579216003 0.22135700285434723 -0.9377380013465881
          -0.643642008304596 0.33431100845336914 0.6884480118751526 0.6159999966621399 -0.5284649729728699 -0.5841820240020752
          0.4752979874610901 -0.7686259746551514 0.4281420111656189 0.039009999483823776 -0.31678301095962524 0.9476959705352783
          0.31782498955726624 0.29914000630378723 -0.899724006652832 0.609296977519989 0.3001750111579895 -0.7339289784431458
          0.8278949856758118 -0.09240200370550156 -0.5532199740409851 -0.20725299417972565 -0.030239000916481018 0.9778199791908264
          0.17059800028800964 0.8338850140571594 -0.5249119997024536 -0.22058600187301636 0.716763973236084 0.6615059971809387
          0.8909249901771545 -0.17798000574111938 0.4178229868412018 0.3119809925556183 -0.2478950023651123 0.9171779751777649
          0.8635119795799255 0.5027120113372803 0.04035099968314171 0.3021799921989441 0.20808599889278412 0.93026202917099
          <InformationKey name="L2_NORM_RANGE" location="vtkDataArray" length="2">
            <Value index="0">
              0.99999944052
            </Value>
            <Value index="1">
              1.0000006022
            </Value>
          </InformationKey>
        </DataArray>
      </PointData>
      <CellData>
      </CellData>
      <Points>
        <DataArray type="Float32" Name="Points" NumberOfComponents="3" format="ascii" RangeMin="0.004073338874908792" RangeMax="0.008871783955376609">
          0.0005440000095404685 -0.0047519998624920845 -0.002908000024035573 -0.0034570000134408474 -0.007321000099182129 -0.0004820000031031668
          -0.006775999907404184 -0.0004030000127386302 -0.0021389999892562628 0.0016189999878406525 -0.004341000225394964 -0.003882999997586012
          0.0011820000363513827 -0.007036999799311161 -0.0027099999133497477 -0.0015810000477358699 -0.0075969998724758625 -0.0008650000090710819
          0.003531999886035919 -0.0022060000337660313 -0.0025160000659525394 -0.004505000077188015 -0.000977999996393919 0.0033760000951588154
          -0.005266999825835228 0.0017170000355690718 0.0032140000257641077 -0.003459000028669834 -0.0033499998971819878 0.0035260000731796026
          -0.0030249999836087227 0.004058999940752983 -0.0007869999972172081 0.0017819999484345317 -0.0007220000261440873 -0.0035910001024603844
          -0.004021999891847372 0.00495699979364872 0.004081000108271837 0.005578000098466873 -0.004602999892085791 -0.0015040000434964895
          0.00417400011792779 -0.00521400012075901 0.0008999999845400453 -0.0005530000198632479 -0.002472999971359968 0.00430699996650219
          0.0041600000113248825 0.0015180000336840749 -0.002357000019401312 0.005989000201225281 0.0027570000384002924 -0.0021520000882446766
          0.007397000212222338 -0.00046400001156143844 -0.0010219999821856618 -0.0020749999675899744 0.0014009999576956034 0.0039519998244941235
          0.0019890000112354755 0.00622399989515543 0.0005089999758638442 -0.0007970000151544809 0.008314999751746655 0.002988999942317605
          0.007255000062286854 -0.0004780000017490238 0.0016289999475702643 0.0026310000102967024 0.00010900000052060932 0.0042409999296069145
          0.0042849997989833355 0.005090000107884407 0.0016240000259131193 0.001803999999538064 0.005297000054270029 0.006457999814301729
          <InformationKey name="L2_NORM_RANGE" location="vtkDataArray" length="2">
            <Value index="0">
              0.0040733388749
            </Value>
            <Value index="1">
              0.0088717839554
            </Value>
          </InformationKey>
        </DataArray>
      </Points>
      <Verts>
        <DataArray type="Int64" Name="connectivity" format="ascii" RangeMin="1e+299" RangeMax="-1e+299">
        </DataArray>
        <DataArray type="Int64" Name="offsets" format="ascii" RangeMin="1e+299" RangeMax="-1e+299">
        </DataArray>
      </Verts>
      <Lines>
        <DataArray type="Int64" Name="connectivity" format="ascii" RangeMin="1e+299" RangeMax="-1e+299">
        </DataArray>
        <DataArray type="Int64" Name="offsets" format="ascii" RangeMin="1e+299" RangeMax="-1e+299">
        </DataArray>
      </Lines>
      <Strips>
        <DataArray type="Int64" Name="connectivity" format="ascii" RangeMin="1e+299" RangeMax="-1e+299">
        </DataArray>
        <DataArray type="Int64" Name="offsets" format="ascii" RangeMin="1e+299" RangeMax="-1e+299">
        </DataArray>
      </Strips>
      <Polys>
        <DataArray type="Int32" Name="connectivity" format="ascii" RangeMin="0" RangeMax="25">
          0 1 2 3 4 5
          1 0 6 0 3 6
          4 0 1 7 8 2
          5 9 7 1 3 2
          10 11 2 8 12 10
          6 3 11 13 14 5
          4 6 13 4 14 15
          9 5 6 11 16 6
          16 17 6 17 18 6
          18 13 19 7 9 19
          8 7 19 12 8 19
          9 15 11 10 20 16
          10 12 21 20 19 21
          12 18 22 14 13 22
          23 15 14 19 15 23
          16 20 24 17 17 24
          22 18 19 23 25 19
          25 21 20 21 25 24
          24 25 23 22
        </DataArray>
        <DataArray type="Int32" Name="offsets" format="ascii" RangeMin="4" RangeMax="112">
          4 8 11 14 18 22
          26 30 33 37 40 44
          47 50 53 56 59 62
          65 68 72 76 79 83
          87 90 94 98 101 104
          108 112
        </DataArray>
      </Polys>
    </Piece>
  </PolyData>
</VTKFile>
