<?xml version="1.0"?>
<VTKFile type="PolyData" version="0.1" byte_order="LittleEndian" header_type="UInt32" compressor="vtkZLibDataCompressor">
  <PolyData>
    <Piece NumberOfPoints="41" NumberOfVerts="0" NumberOfLines="0" NumberOfStrips="0" NumberOfPolys="48">
      <PointData Normals="Normals">
        <DataArray type="Float32" Name="Normals" NumberOfComponents="3" format="ascii" RangeMin="0.9999995287712975" RangeMax="1.0000005395545999">
          -0.32240399718284607 -0.9466009736061096 0.001478999969549477 -0.940455973148346 -0.30246999859809875 0.15509599447250366
          -0.99161297082901 -0.12578999996185303 -0.029688000679016113 -0.291593998670578 -0.8928300142288208 -0.3432599902153015
          0.4609909951686859 -0.7223349809646606 -0.5154790282249451 -0.5176540017127991 -0.775081992149353 -0.3623279929161072
          0.6919819712638855 -0.6956409811973572 -0.1929900050163269 0.7848809957504272 -0.521465003490448 -0.3347179889678955
          -0.9445890188217163 -0.3273249864578247 0.02469100058078766 -0.9875249862670898 -0.14264899492263794 0.06667900085449219
          -0.9754030108451843 0.0900920033454895 -0.20117700099945068 -0.5620589852333069 0.32598501443862915 -0.760146975517273
          0.8590930104255676 0.12571899592876434 -0.4961389899253845 0.9585909843444824 -0.2464279979467392 -0.14274799823760986
          0.38833901286125183 -0.7590230107307434 -0.5225679874420166 0.9792159795761108 -0.15985700488090515 0.12482800334692001
          0.9973480105400085 -0.06233900040388107 0.0375480018556118 -0.5919399857521057 -0.7744969725608826 -0.22307400405406952
          -0.9442009925842285 -0.3293440043926239 -0.004110999871045351 0.9717209935188293 -0.18582500517368317 -0.14569400250911713
          0.9789130091667175 -0.10217899829149246 -0.1768839955329895 -0.9868599772453308 0.14376400411128998 -0.07375200092792511
          -0.9946529865264893 0.03889099881052971 0.09567400068044662 -0.9590110182762146 -0.17713600397109985 0.22117899358272552
          -0.8793020248413086 -0.2656649947166443 0.3952850103378296 -0.9145810008049011 -0.2797519862651825 0.2920289933681488
          -0.4421910047531128 0.8969029784202576 -0.005657999776303768 0.6865730285644531 0.710112988948822 0.15606600046157837
          0.994691014289856 -0.027403999119997025 0.09919500350952148 0.9694100022315979 -0.13319499790668488 -0.20616599917411804
          0.5377489924430847 -0.8208479881286621 0.19244399666786194 0.9578070044517517 0.24733799695968628 0.14639200270175934
          -0.3804680109024048 -0.8001360297203064 0.4637089967727661 0.9290540218353271 0.1735599935054779 0.3267050087451935
          -0.5869050025939941 0.7418720126152039 0.3242979943752289 -0.5385689735412598 0.6619529724121094 0.5213080048561096
          -0.36729198694229126 -0.012374999932944775 0.9300230145454407 0.5787299871444702 0.6689689755439758 0.46642398834228516
          0.9921910166740417 0.12461599707603455 0.005197999998927116 0.8036999702453613 0.0936259999871254 0.5876230001449585
          0.5237540006637573 0.7689200043678284 0.3666670024394989
          <InformationKey name="L2_NORM_RANGE" location="vtkDataArray" length="2">
            <Value index="0">
              0.99999952877
            </Value>
            <Value index="1">
              1.0000005396
            </Value>
          </InformationKey>
        </DataArray>
      </PointData>
      <CellData>
      </CellData>
      <Points>
        <DataArray type="Float32" Name="Points" NumberOfComponents="3" format="ascii" RangeMin="0.005450010684650701" RangeMax="0.017978106265773085">
          -0.005789999850094318 -0.0065449997782707214 -0.0007159999804571271 -0.007296999916434288 -0.004561999812722206 0.0009239999926649034
          -0.008019999600946903 -0.0048489999026060104 -0.004494000226259232 -0.006331999786198139 -0.0070779998786747456 -0.006182000041007996
          0.0030400000978261232 -0.007052999921143055 0.0037990000564604998 -0.005167999770492315 -0.0074640000239014626 0.0025319999549537897
          0.005251999944448471 -0.0013470000121742487 -0.0005520000122487545 0.004145000129938126 -0.00009699999645818025 -0.0074800001457333565
          -0.00660100020468235 -0.004987000022083521 0.0039809998124837875 -0.006891999859362841 -0.0037219999358057976 0.0030879999976605177
          -0.006936999969184399 -0.0011490000179037452 -0.00911100022494793 -0.0003969999961555004 0.004540000110864639 -0.013813000172376633
          0.004865000024437904 0.004728999920189381 -0.009352000430226326 0.004360999912023544 -0.007703999988734722 0.006535000167787075
          0.0008759999764151871 -0.011402999982237816 0.005386999808251858 0.004925000015646219 -0.005255000200122595 0.006246999837458134
          0.005404000170528889 0.00008399999933317304 0.0007440000190399587 -0.004242999944835901 -0.011126000434160233 0.005111000034958124
          -0.006287999916821718 -0.006823000032454729 0.006663000211119652 0.005390999838709831 0.0016499999910593033 -0.0054060001857578754
          0.005830000154674053 0.0032049999572336674 -0.005617999937385321 -0.008018000051379204 0.00028700000257231295 -0.0029170000925660133
          -0.007608999963849783 0.0005810000002384186 0.005289999768137932 -0.006816000211983919 -0.0037899999879300594 0.008934999816119671
          -0.005545999854803085 -0.0048409998416900635 0.01155600044876337 -0.005793000105768442 -0.007089000195264816 0.0100509999319911
          -0.004887999966740608 0.006428999826312065 -0.003988000098615885 0.005940000060945749 0.004945999942719936 -0.0020649998914450407
          0.005901999771595001 0.0030040000565350056 -0.0022410000674426556 0.004525000229477882 -0.007813000120222569 0.007770999800413847
          0.002630000002682209 -0.012112000025808811 0.008136999793350697 0.0034459999296814203 -0.0013909999979659915 0.00834100041538477
          -0.0034600000362843275 -0.00995699968189001 0.012307999655604362 0.004182999953627586 0.0013200000394135714 0.0034570000134408474
          -0.007346999831497669 0.002633000025525689 0.005814999807626009 -0.0035329998936504126 0.000539999979082495 0.012090000323951244
          0.0008859999943524599 -0.003647000063210726 0.0175819993019104 0.0027099999133497477 0.0036510000936686993 0.005491999909281731
          0.005528999958187342 -0.004251999780535698 0.011514999903738499 0.003819999983534217 -0.00278700003400445 0.01706000044941902
          0.0019130000146105886 0.0005300000193528831 0.010270999744534492
          <InformationKey name="L2_NORM_RANGE" location="vtkDataArray" length="2">
            <Value index="0">
              0.0054500106847
            </Value>
            <Value index="1">
              0.017978106266
            </Value>
          </InformationKey>
        </DataArray>
      </Points>
      <Verts>
        <DataArray type="Int64" Name="connectivity" format="ascii" RangeMin="1e+299" RangeMax="-1e+299">
        </DataArray>
        <DataArray type="Int64" Name="offsets" format="ascii" RangeMin="1e+299" RangeMax="-1e+299">
        </DataArray>
      </Verts>
      <Lines>
        <DataArray type="Int64" Name="connectivity" format="ascii" RangeMin="1e+299" RangeMax="-1e+299">
        </DataArray>
        <DataArray type="Int64" Name="offsets" format="ascii" RangeMin="1e+299" RangeMax="-1e+299">
        </DataArray>
      </Lines>
      <Strips>
        <DataArray type="Int64" Name="connectivity" format="ascii" RangeMin="1e+299" RangeMax="-1e+299">
        </DataArray>
        <DataArray type="Int64" Name="offsets" format="ascii" RangeMin="1e+299" RangeMax="-1e+299">
        </DataArray>
      </Strips>
      <Polys>
        <DataArray type="Int32" Name="connectivity" format="ascii" RangeMin="0" RangeMax="40">
          0 1 2 3 4 5
          0 6 6 0 3 7
          5 8 1 0 1 8
          9 2 1 9 3 2
          10 11 10 2 9 7
          3 11 12 13 14 4
          15 15 4 6 16 14
          17 5 4 17 18 8
          5 16 6 7 19 19
          7 12 20 8 18 9
          21 10 9 22 21 9
          23 22 9 24 23 9
          25 24 9 18 25 9
          11 10 21 26 12 11
          26 27 20 12 27 28
          29 30 14 13 31 13
          15 29 13 31 30 32
          17 14 15 16 33 31
          15 33 16 19 28 33
          16 28 32 25 18 17
          28 19 20 26 21 22
          34 34 22 23 35 35
          23 24 36 36 24 25
          32 27 26 34 37 28
          27 37 33 38 39 30
          29 38 29 31 39 36
          32 30 33 37 40 31
          31 40 39 38 37 34
          35 40 40 35 36 39
        </DataArray>
        <DataArray type="Int32" Name="offsets" format="ascii" RangeMin="4" RangeMax="174">
          4 8 12 16 19 22
          26 29 33 37 41 45
          49 53 57 60 63 66
          69 72 75 78 82 86
          90 94 97 100 104 107
          110 113 116 120 123 127
          131 135 139 143 147 151
          154 158 162 166 170 174
        </DataArray>
      </Polys>
    </Piece>
  </PolyData>
</VTKFile>
