<?xml version="1.0"?>
<VTKFile type="PolyData" version="0.1" byte_order="LittleEndian" header_type="UInt32" compressor="vtkZLibDataCompressor">
  <PolyData>
    <Piece NumberOfPoints="34" NumberOfVerts="0" NumberOfLines="0" NumberOfStrips="0" NumberOfPolys="41">
      <PointData Normals="Normals">
        <DataArray type="Float32" Name="Normals" NumberOfComponents="3" format="ascii" RangeMin="0.9999993333666736" RangeMax="1.0000005361081026">
          0.3206470012664795 0.1409749984741211 -0.9366490244865417 0.6494669914245605 0.02961600013077259 -0.7598130106925964
          0.1992350071668625 -0.6419150233268738 -0.7404389977455139 0.4416170120239258 -0.302947998046875 -0.844510018825531
          0.12882299721240997 0.36302998661994934 -0.9228289723396301 0.38334599137306213 -0.09274999797344208 -0.918936014175415
          0.3090609908103943 0.09784500300884247 -0.9459959864616394 0.3243739902973175 0.240897998213768 -0.9147400259971619
          0.18059200048446655 0.4253210127353668 -0.8868420124053955 0.9825839996337891 -0.035197000950574875 -0.18245400488376617
          0.8879430294036865 -0.3859739899635315 -0.2501620054244995 0.7901359796524048 -0.32963600754737854 -0.5167449712753296
          -0.44212400913238525 -0.8725050091743469 0.20799200236797333 0.04211900010704994 -0.9971680045127869 -0.06230499967932701
          0.45166099071502686 -0.867510974407196 0.20839299261569977 0.22977299988269806 -0.19273899495601654 -0.9539690017700195
          -0.03380899876356125 0.9669730067253113 0.25262799859046936 0.5949689745903015 0.3754430115222931 -0.7106710076332092
          -0.23942500352859497 0.9467300176620483 -0.2153570055961609 0.8125450015068054 -0.37162500619888306 -0.4490729868412018
          -0.18952800333499908 0.3051779866218567 -0.9332450032234192 0.9536849856376648 -0.21680200099945068 -0.2085220068693161
          0.6197530031204224 -0.36874398589134216 0.6927729845046997 -0.30824100971221924 -0.4264490008354187 0.8503689765930176
          -0.4015580117702484 -0.4009450078010559 0.8234040141105652 -0.25112101435661316 -0.8773099780082703 0.4089820086956024
          -0.059186000376939774 -0.6193910241127014 -0.7828490138053894 -0.04194999858736992 0.7385609745979309 0.672881007194519
          0.5989710092544556 0.7209650278091431 0.3484880030155182 -0.5703020095825195 0.7814440131187439 -0.25318199396133423
          0.9776380062103271 -0.048622000962495804 0.20459799468517303 -0.7768300175666809 -0.462911993265152 -0.4269050061702728
          0.832023024559021 -0.12409000098705292 0.5406849980354309 0.1612820029258728 0.14443500339984894 0.976282000541687
          <InformationKey name="L2_NORM_RANGE" location="vtkDataArray" length="2">
            <Value index="0">
              0.99999933337
            </Value>
            <Value index="1">
              1.0000005361
            </Value>
          </InformationKey>
        </DataArray>
      </PointData>
      <CellData>
      </CellData>
      <Points>
        <DataArray type="Float32" Name="Points" NumberOfComponents="3" format="ascii" RangeMin="0.002962197543470938" RangeMax="0.0109505267857246">
          0.002205000026151538 -0.004038000013679266 -0.002225999953225255 0.004687000066041946 -0.003926999866962433 -0.0030129998922348022
          0.0035880000796169043 -0.007447999902069569 -0.003111999947577715 0.0005169999785721302 -0.008840999566018581 -0.002962999977171421
          0.0031109999399632215 -0.0005249999812804163 -0.002526999916881323 0.005282999947667122 0.0004299999854993075 -0.0026839999482035637
          -0.00025599999935366213 -0.0019020000472664833 -0.0034229999873787165 -0.00032699998700991273 -0.00011100000119768083 -0.002942000050097704
          0.00025400001322850585 0.0029869999270886183 -0.0021009999327361584 0.0046350001357495785 -0.0041160001419484615 0.0001340000017080456
          0.0044109998270869255 -0.00902200024574995 -0.00014600000577047467 0.004892999771982431 -0.000750000006519258 0.0008880000095814466
          0.002761000068858266 -0.010224999859929085 0.0004769999941345304 -0.0016789999790489674 -0.009610000066459179 -0.0008759999764151871
          0.004342999774962664 -0.00978699978441 0.0022950000129640102 -0.0018159999744966626 -0.003046999918296933 -0.003567999927327037
          0.0035910001024603844 0.004616999998688698 -0.00023400000645779073 0.007369999773800373 0.0047610001638531685 -0.002007999923080206
          -0.0030249999836087227 0.003659999929368496 -0.0011699999449774623 0.007439999841153622 0.003404000075533986 -0.0007259999983943999
          -0.00254400004632771 -0.0003169999981764704 -0.0025339999701827765 0.005561999976634979 -0.002601000014692545 0.0022589999716728926
          0.00533400010317564 -0.004896000027656555 0.005049999803304672 0.0021470000501722097 -0.0042039998807013035 0.005698000080883503
          -0.006386999972164631 0.0030159999150782824 0.0062859999015927315 -0.004910000134259462 -0.004854000173509121 -0.0017269999952986836
          -0.0033760000951588154 -0.004191999789327383 -0.003711000084877014 -0.0003380000125616789 0.006947999820113182 0.0019440000178292394
          0.007451999932527542 0.005249000154435635 0.004251000005751848 -0.005950999911874533 0.0025679999962449074 -0.0006290000164881349
          0.00762399984523654 0.0034890000242739916 0.0034910000395029783 -0.005849000066518784 -0.002495999913662672 -0.0027280000504106283
          0.005816999822854996 0.0008629999938420951 0.007083999924361706 0.003854000009596348 0.0016929999692365527 0.00877700001001358
          <InformationKey name="L2_NORM_RANGE" location="vtkDataArray" length="2">
            <Value index="0">
              0.0029621975435
            </Value>
            <Value index="1">
              0.010950526786
            </Value>
          </InformationKey>
        </DataArray>
      </Points>
      <Verts>
        <DataArray type="Int64" Name="connectivity" format="ascii" RangeMin="1e+299" RangeMax="-1e+299">
        </DataArray>
        <DataArray type="Int64" Name="offsets" format="ascii" RangeMin="1e+299" RangeMax="-1e+299">
        </DataArray>
      </Verts>
      <Lines>
        <DataArray type="Int64" Name="connectivity" format="ascii" RangeMin="1e+299" RangeMax="-1e+299">
        </DataArray>
        <DataArray type="Int64" Name="offsets" format="ascii" RangeMin="1e+299" RangeMax="-1e+299">
        </DataArray>
      </Lines>
      <Strips>
        <DataArray type="Int64" Name="connectivity" format="ascii" RangeMin="1e+299" RangeMax="-1e+299">
        </DataArray>
        <DataArray type="Int64" Name="offsets" format="ascii" RangeMin="1e+299" RangeMax="-1e+299">
        </DataArray>
      </Strips>
      <Polys>
        <DataArray type="Int32" Name="connectivity" format="ascii" RangeMin="0" RangeMax="33">
          0 1 2 3 4 5
          1 0 3 6 7 0
          0 7 8 4 1 9
          10 2 5 11 9 1
          3 2 12 13 2 10
          14 12 13 15 6 3
          16 17 5 4 4 8
          18 16 17 19 11 5
          7 6 20 6 15 20
          8 7 20 18 8 20
          21 10 9 21 9 11
          21 14 10 21 11 19
          12 14 22 23 13 12
          23 24 25 26 15 13
          13 24 25 21 22 14
          15 26 20 27 28 17
          16 16 18 29 27 28
          30 19 17 29 18 20
          21 19 30 31 29 20
          26 31 20 21 30 32
          21 32 22 23 22 32
          33 33 24 23 24 33
          28 27 27 29 31 24
          24 31 26 25 33 32
          30 28
        </DataArray>
        <DataArray type="Int32" Name="offsets" format="ascii" RangeMin="4" RangeMax="146">
          4 8 12 16 20 24
          28 32 36 40 44 48
          51 54 57 60 63 66
          69 72 76 80 84 87
          90 93 97 101 105 108
          111 114 117 120 123 127
          130 134 138 142 146
        </DataArray>
      </Polys>
    </Piece>
  </PolyData>
</VTKFile>
