<?xml version="1.0"?>
<VTKFile type="PolyData" version="0.1" byte_order="LittleEndian" header_type="UInt32" compressor="vtkZLibDataCompressor">
  <PolyData>
    <Piece NumberOfPoints="194" NumberOfVerts="0" NumberOfLines="0" NumberOfStrips="0" NumberOfPolys="384">
      <PointData Normals="Normals">
        <DataArray type="Float32" Name="Normals" NumberOfComponents="3" format="ascii" RangeMin="0.9999993062988252" RangeMax="1.0000006900953946">
          -0.3634819984436035 -0.5929340124130249 0.718546986579895 -0.002957999939098954 -0.9030330181121826 0.42956000566482544
          -0.3029710054397583 -0.5420830249786377 0.7838079929351807 -0.024822000414133072 -0.4027099907398224 0.914991021156311
          0.19351300597190857 -0.7617030143737793 0.6183540225028992 -0.3057900071144104 0.35193800926208496 0.8846650123596191
          0.007646999787539244 0.27869701385498047 0.9603490233421326 -0.3141520023345947 -0.9296749830245972 0.19238699972629547
          -0.03197399899363518 -0.8987510204315186 0.4372920095920563 -0.9042490124702454 0.07286199927330017 0.4207429885864258
          -0.71806401014328 -0.567333996295929 0.40313398838043213 0.5704309940338135 0.1922830045223236 0.7985209822654724
          0.4538689851760864 -0.7736350297927856 0.4421440064907074 0.8339419960975647 0.22538399696350098 0.5037299990653992
          0.5659999847412109 0.6061509847640991 0.558771014213562 0.14695100486278534 0.559798002243042 0.8154950141906738
          -0.3691360056400299 0.5057640075683594 0.7797060012817383 -0.868245005607605 -0.4257490038871765 -0.2547309994697571
          -0.91218101978302 -0.2602970004081726 -0.3164980113506317 0.13880200684070587 -0.9219340085983276 0.36162298917770386
          -0.2291180044412613 -0.9718809723854065 0.054329998791217804 -0.6542810201644897 -0.7458739876747131 -0.12485600262880325
          0.5251830220222473 -0.7800700068473816 0.3401089906692505 0.30363398790359497 -0.857079029083252 0.41620001196861267
          0.07801999896764755 -0.9420740008354187 0.32620400190353394 -0.41321998834609985 -0.8881760239601135 0.200982004404068
          -0.38511401414871216 -0.9228540062904358 -0.005280999932438135 -0.7193189859390259 0.3929489850997925 0.572862982749939
          -0.933892011642456 0.1121089980006218 -0.3395240008831024 0.7332649827003479 -0.6336209774017334 0.24666999280452728
          0.9301620125770569 0.02808300033211708 0.36607301235198975 0.7827309966087341 0.4961029887199402 0.3757849931716919
          0.5055739879608154 0.3518350124359131 0.7877860069274902 0.8097339868545532 0.2689020037651062 0.5215590000152588
          -0.007350999861955643 0.4183109998703003 0.9082739949226379 -0.9479510188102722 -0.25578999519348145 -0.18963299691677094
          -0.7534710168838501 -0.6433209776878357 -0.1357160061597824 -0.7858359813690186 -0.4962719976902008 -0.3690199851989746
          -0.30619800090789795 -0.9397270083427429 -0.1521719992160797 -0.6242460012435913 -0.7044199705123901 -0.337799996137619
          0.8526970148086548 -0.5214959979057312 -0.030813999474048615 0.8790900111198425 -0.47653400897979736 -0.010785000398755074
          -0.11265400052070618 -0.9779059886932373 -0.17609499394893646 0.45762500166893005 -0.7632330060005188 -0.4561299979686737
          -0.6244980096817017 -0.4903869926929474 -0.6078850030899048 -0.6141809821128845 -0.5569769740104675 -0.5590689778327942
          -0.5664010047912598 -0.3969799876213074 -0.722216010093689 0.080595001578331 0.15245899558067322 0.9850180149078369
          -0.9235429763793945 0.22352300584316254 0.31161800026893616 -0.9985259771347046 0.05044199898838997 0.020042000338435173
          0.9768949747085571 -0.15615199506282806 0.1459210067987442 0.9078969955444336 -0.41762998700141907 -0.036166001111269
          0.9145380258560181 0.32078900933265686 0.24640299379825592 0.7599740028381348 0.10200600326061249 0.6418989896774292
          0.8382279872894287 0.21895399689674377 -0.4994330108165741 -0.9071329832077026 -0.17416900396347046 -0.38311201333999634
          0.7119690179824829 -0.22245700657367706 -0.6660429835319519 0.8548539876937866 -0.2112720012664795 -0.473908007144928
          -0.3486660122871399 -0.44005700945854187 -0.8275150060653687 0.126568004488945 -0.26499301195144653 -0.9559080004692078
          -0.5182139873504639 -0.1621370017528534 -0.8397409915924072 -0.5972269773483276 -0.04299300163984299 -0.8009189963340759
          -0.15427899360656738 0.06532099843025208 -0.9858660101890564 -0.70523601770401 0.08723500370979309 0.7035859823226929
          0.16162599623203278 0.004668999928981066 0.9868410229682922 0.621167004108429 -0.031286999583244324 0.7830529808998108
          -0.9890549778938293 0.13253499567508698 0.06484100222587585 0.9676460027694702 0.06880299746990204 -0.24275100231170654
          0.986240029335022 -0.0031999999191612005 0.16528700292110443 0.7034000158309937 0.09526100009679794 -0.7043820023536682
          0.1478790044784546 0.13775700330734253 -0.9793649911880493 -0.7736290097236633 0.14439299702644348 -0.6169679760932922
          -0.30587300658226013 0.10726200044155121 -0.9460110068321228 -0.5377219915390015 -0.00817899964749813 0.8430830240249634
          -0.9871490001678467 0.0961960032582283 -0.1276089996099472 0.9803259968757629 -0.07521200180053711 0.18249399960041046
          0.8650709986686707 0.021291999146342278 -0.5011979937553406 0.24900999665260315 0.061083998531103134 -0.9665729999542236
          -0.7365310192108154 0.11036500334739685 -0.667339026927948 -0.24059799313545227 0.06860800087451935 -0.9681969881057739
          -0.1870180070400238 -0.16639000177383423 0.968163013458252 -0.8825250267982483 0.08454100042581558 -0.46260499954223633
          -0.9378550052642822 0.08998999744653702 -0.33515799045562744 -0.676967978477478 0.09312800318002701 -0.7300959825515747
          0.8994870185852051 -0.09429000318050385 0.4266520142555237 0.9295960068702698 0.01510199997574091 -0.36827099323272705
          0.4194810092449188 0.05788499861955643 -0.9059169888496399 0.6529160141944885 0.060982998460531235 -0.754971981048584
          -0.2919119894504547 0.08314400166273117 -0.9528239965438843 0.17915299534797668 -0.16407600045204163 0.9700430035591125
          -0.8237820267677307 -0.02736400067806244 0.566245973110199 -0.5336560010910034 0.12072700262069702 -0.8370400071144104
          -0.17394399642944336 0.20273199677467346 -0.9636610150337219 -0.6167510151863098 0.1677590012550354 -0.769074022769928
          -0.9800840020179749 -0.06335800141096115 0.18820400536060333 -0.3457379937171936 -0.17035900056362152 0.9227370023727417
          -0.08320699632167816 0.16768300533294678 -0.9823229908943176 0.8716980218887329 -0.06700199842453003 0.48544201254844666
          0.8920729756355286 0.1338369995355606 -0.43161800503730774 0.47853198647499084 0.18424899876117706 -0.8585219979286194
          -0.07717099785804749 0.11563099920749664 -0.9902899861335754 0.43972599506378174 0.21998099982738495 -0.8707749843597412
          0.16468699276447296 0.21230700612068176 -0.9632260203361511 -0.40293899178504944 0.15627700090408325 -0.9017860293388367
          -0.8639479875564575 0.0739469975233078 -0.4981229901313782 -0.3775300085544586 -0.07836499810218811 0.9226750135421753
          -0.7923470139503479 -0.012992000207304955 0.609932005405426 -0.9997770190238953 -0.004567999858409166 -0.0206339992582798
          0.785955011844635 -0.1929900050163269 0.5873919725418091 0.22333300113677979 -0.3123120069503784 0.9233540296554565
          0.9279680252075195 0.07275599986314774 -0.3654879927635193 0.699072003364563 0.014883999712765217 -0.7148969769477844
          0.0355059988796711 -0.007965999655425549 -0.9993379712104797 -0.8238760232925415 -0.015487000346183777 -0.5665580034255981
          -0.4404749870300293 -0.08213700354099274 -0.8939999938011169 -0.5003290176391602 0.062477000057697296 0.8635789752006531
          -0.0076060001738369465 -0.02167999930679798 0.9997360110282898 0.17028099298477173 -0.22577700018882751 0.9591820240020752
          0.24788600206375122 -0.0626479983329773 0.9667620062828064 -0.8362600207328796 -0.03520999848842621 0.5472009778022766
          -0.9978119730949402 -0.06580299884080887 -0.0064650001004338264 0.9254170060157776 -0.14028400182724 0.3520280122756958
          0.6264870166778564 -0.30496498942375183 0.7172939777374268 0.5759029984474182 -0.2886410057544708 0.7648670077323914
          0.9656490087509155 0.004058999940752983 0.25981900095939636 0.9970380067825317 0.04124699905514717 -0.06491699814796448
          0.9571880102157593 -0.28888699412345886 -0.018309999257326126 0.809660017490387 -0.45270299911499023 -0.37351199984550476
          0.4916050136089325 -0.46974799036979675 -0.7332540154457092 0.2337460070848465 -0.34988901019096375 -0.9071609973907471
          -0.24963000416755676 -0.43906399607658386 -0.8630809783935547 -0.8078510165214539 -0.2936300039291382 -0.5110359787940979
          -0.5141509771347046 -0.1241070032119751 0.8486729860305786 0.5579119920730591 0.02121100015938282 0.8296290040016174
          0.09885500371456146 -0.41808798909187317 0.9030119776725769 0.6238359808921814 -0.14246399700641632 0.7684609889984131
          0.7131220102310181 -0.1264989972114563 0.6895319819450378 0.6861410140991211 0.04187199845910072 0.7262629866600037
          -0.859807014465332 -0.09941799938678741 0.5008469820022583 -0.9579229950904846 -0.2870059907436371 0.0032250001095235348
          0.8758590221405029 0.08400700241327286 0.47519901394844055 0.8839730024337769 -0.04093100130558014 0.46574199199676514
          0.8404949903488159 -0.36200401186943054 0.40314000844955444 0.7426829934120178 -0.5234040021896362 0.41769498586654663
          0.6937980055809021 -0.7162749767303467 -0.07479900121688843 0.808601975440979 -0.46610599756240845 -0.35903701186180115
          0.6867859959602356 -0.3414689898490906 -0.6416569948196411 0.13024599850177765 -0.4273830056190491 -0.8946400284767151
          0.43228599429130554 -0.12045300006866455 -0.8936560153961182 -0.7128689885139465 -0.22745299339294434 -0.6633880138397217
          -0.2165219932794571 -0.2911809980869293 -0.9318439960479736 -0.9609789848327637 -0.2022549957036972 -0.18871399760246277
          -0.5200380086898804 -0.3578549921512604 0.7755650281906128 0.42479100823402405 -0.5324379801750183 0.7321630120277405
          0.6022130250930786 -0.5295969843864441 0.597383975982666 -0.05326800048351288 -0.4056369960308075 0.9124810099601746
          -0.8605239987373352 -0.2950020134449005 0.4152989983558655 -0.9343370199203491 -0.3000499904155731 0.19231300055980682
          0.3630540072917938 -0.15476399660110474 0.9188249707221985 0.6810150146484375 0.3063429892063141 0.6651110053062439
          0.8909410238265991 -0.3540849983692169 0.28433701395988464 0.940060019493103 -0.33556199073791504 -0.06070899963378906
          0.9191579818725586 0.0967869982123375 -0.3818120062351227 0.6874909996986389 0.1670980006456375 -0.7067059874534607
          0.12727999687194824 0.1902260035276413 -0.973455011844635 0.38488999009132385 0.5597419738769531 -0.7338590025901794
          -0.555866003036499 0.29686498641967773 -0.7764559984207153 -0.30279698967933655 0.1510149985551834 -0.9410139918327332
          -0.8235750198364258 0.15596699714660645 -0.5453429818153381 -0.9360790252685547 0.08194100111722946 -0.34211400151252747
          -0.8776130080223083 0.47463899850845337 -0.06718499958515167 -0.9666029810905457 0.053711000829935074 0.25058600306510925
          -0.48983898758888245 -0.33755698800086975 0.8038120269775391 -0.7849180102348328 -0.25406500697135925 0.5651140213012695
          -0.46198099851608276 -0.1221579983830452 0.8784369826316833 -0.06999699771404266 -0.12150000035762787 0.990119993686676
          0.15370599925518036 0.4378660023212433 0.8858029842376709 0.7550370097160339 0.6493600010871887 0.0908380001783371
          0.17234599590301514 0.9603220224380493 0.2192700058221817 0.785830020904541 0.555387020111084 -0.27206099033355713
          0.6303489804267883 0.6355670094490051 -0.44577398896217346 -0.07043199986219406 0.7151730060577393 -0.695389986038208
          0.1859460026025772 0.9760599732398987 -0.11283200234174728 -0.6488440036773682 0.6280689835548401 -0.4295699894428253
          -0.3458290100097656 0.7332929968833923 -0.5853919982910156 -0.6455709934234619 0.6230679750442505 0.4416159987449646
          -0.2426539957523346 0.9697679877281189 0.02587199956178665 -0.7821900248527527 0.007631000131368637 0.622992992401123
          -0.35665398836135864 0.3179199993610382 0.87847900390625 -0.042653001844882965 0.9334880113601685 0.35606300830841064
          0.2840830087661743 0.9558579921722412 -0.07505399733781815 0.08135499805212021 0.9962660074234009 0.028894999995827675
          -0.0520859993994236 0.992455005645752 -0.11099600046873093 -0.1004519984126091 0.9797520041465759 0.17319199442863464
          <InformationKey name="L2_NORM_RANGE" location="vtkDataArray" length="2">
            <Value index="0">
              0.9999993063
            </Value>
            <Value index="1">
              1.0000006901
            </Value>
          </InformationKey>
        </DataArray>
      </PointData>
      <CellData>
      </CellData>
      <Points>
        <DataArray type="Float32" Name="Points" NumberOfComponents="3" format="ascii" RangeMin="0.0020780890159033446" RangeMax="0.2409051638967742">
          -0.012807000428438187 -0.22762000560760498 -0.011017000302672386 -0.013906000182032585 -0.22937799990177155 -0.014952999539673328
          -0.01879199966788292 -0.2293969988822937 -0.015464999713003635 -0.007830999791622162 -0.22772599756717682 -0.008201999589800835
          -0.003959000110626221 -0.22841300070285797 -0.009251000359654427 -0.010300000198185444 -0.22289299964904785 -0.008969999849796295
          -0.006924999877810478 -0.22418999671936035 -0.0076489998027682304 -0.016839999705553055 -0.23313699662685394 -0.020368000492453575
          -0.0035699999425560236 -0.23248699307441711 -0.02758299931883812 -0.020873000845313072 -0.22680999338626862 -0.01604600064456463
          -0.01998000033199787 -0.2298160046339035 -0.016063999384641647 -0.0034940000623464584 -0.22592200338840485 -0.00913199968636036
          -0.0015069999499246478 -0.22958000004291534 -0.011938000097870827 -0.00045900000259280205 -0.2274159938097 -0.012409999966621399
          -0.006535000167787075 -0.22037899494171143 -0.013224000111222267 -0.0114120002835989 -0.21866799890995026 -0.012810000218451023
          -0.01269800029695034 -0.2186339944601059 -0.013016000390052795 -0.016801999881863594 -0.23160000145435333 -0.0239499993622303
          -0.020037999376654625 -0.22924399375915527 -0.017450999468564987 -0.008888999931514263 -0.23411500453948975 -0.02796100080013275
          -0.014344999566674232 -0.23384900391101837 -0.023899000138044357 -0.015652000904083252 -0.23295700550079346 -0.023784000426530838
          0.0022009999956935644 -0.23383499681949615 -0.027080999687314034 0.0010819999733939767 -0.2369460016489029 -0.03175700083374977
          0.0011919999960809946 -0.23267899453639984 -0.024164000526070595 -0.004699000157415867 -0.23739199340343475 -0.03266099840402603
          -0.007457999978214502 -0.23561599850654602 -0.03122200071811676 -0.016402000561356544 -0.21541500091552734 -0.01750599965453148
          -0.018750999122858047 -0.22417199611663818 -0.019161000847816467 0.0026110000908374786 -0.23252800107002258 -0.025187000632286072
          0.0026320000179111958 -0.2285279929637909 -0.019733000546693802 0.0009599999757483602 -0.22482499480247498 -0.023096000775694847
          -0.006479000207036734 -0.21436099708080292 -0.01686299964785576 -0.00521400012075901 -0.21940399706363678 -0.015905000269412994
          -0.010011999867856503 -0.21444100141525269 -0.015197999775409698 -0.016276000067591667 -0.23148900270462036 -0.02616100013256073
          -0.015603999607264996 -0.23290200531482697 -0.025442000478506088 -0.015320999547839165 -0.23282699286937714 -0.02662999927997589
          -0.01017099991440773 -0.23462000489234924 -0.02951899915933609 -0.01459600031375885 -0.23364199697971344 -0.0268389992415905
          0.0019249999895691872 -0.23610299825668335 -0.03305000066757202 0.003622000105679035 -0.23154300451278687 -0.03141200169920921
          -0.0017600000137463212 -0.23849600553512573 -0.033939000219106674 0.00017100000695791095 -0.23775699734687805 -0.034630000591278076
          -0.007060000207275152 -0.2347330003976822 -0.03273199871182442 -0.004767999984323978 -0.2368990033864975 -0.033883001655340195
          -0.012830999679863453 -0.2301809936761856 -0.03143199905753136 -0.01053099986165762 -0.20887599885463715 -0.016641000285744667
          -0.014504999853670597 -0.20918400585651398 -0.01818300038576126 -0.016790999099612236 -0.22655199468135834 -0.025854000821709633
          0.004889000207185745 -0.22935600578784943 -0.02725899964570999 0.00481700012460351 -0.2302210032939911 -0.030299000442028046
          0.004708999767899513 -0.22544999420642853 -0.029131000861525536 -0.0031059999018907547 -0.20923100411891937 -0.021412000060081482
          0.0016380000161007047 -0.21613800525665283 -0.0320499986410141 -0.01771399937570095 -0.22571200132369995 -0.028610000386834145
          0.0017059999518096447 -0.2355560064315796 -0.03516000136733055 0.004170000087469816 -0.23051400482654572 -0.03334999829530716
          -0.002655999967828393 -0.2368669956922531 -0.035771001130342484 -0.00133500003721565 -0.23544800281524658 -0.036616001278162
          -0.004100000020116568 -0.2320770025253296 -0.035333000123500824 -0.01649099960923195 -0.22510600090026855 -0.03022100031375885
          -0.0026199999265372753 -0.2305620014667511 -0.036240000277757645 -0.011754999868571758 -0.19492900371551514 -0.017976000905036926
          -0.00786499958485365 -0.18782499432563782 -0.017666999250650406 -0.0038240000139921904 -0.18456700444221497 -0.019536999985575676
          -0.015070999972522259 -0.20899100601673126 -0.024858999997377396 0.004858999978750944 -0.22753700613975525 -0.03219899907708168
          -0.0008789999992586672 -0.1874070018529892 -0.025050999596714973 -0.0011269999668002129 -0.19418199360370636 -0.029374999925494194
          -0.0048489999026060104 -0.20829400420188904 -0.032003000378608704 -0.01634499989449978 -0.22265200316905975 -0.029892999678850174
          -0.011010999791324139 -0.19662100076675415 -0.03006099909543991 -0.008743000216782093 -0.14678099751472473 -0.016471000388264656
          -0.013016999699175358 -0.18780100345611572 -0.024765999987721443 0.0012799999676644802 -0.14155399799346924 -0.021405000239610672
          -0.0004879999905824661 -0.1700969934463501 -0.02656799927353859 -0.004050000105053186 -0.183105006814003 -0.03004400059580803
          -0.010781999677419662 -0.18013499677181244 -0.027759000658988953 -0.0067090000957250595 -0.16998499631881714 -0.0293940007686615
          -0.0069149998016655445 -0.1081480011343956 -0.009186999872326851 -0.009403999894857407 -0.15074600279331207 -0.025523999705910683
          -0.007712999824434519 -0.10154099762439728 -0.018654000014066696 -0.00827299989759922 -0.1548289954662323 -0.027434999123215675
          0.004236999899148941 -0.07419399917125702 -0.009913000278174877 0.0027439999394118786 -0.11202800273895264 -0.020382000133395195
          -0.0026310000102967024 -0.13680399954319 -0.02717299945652485 0.000514000013936311 -0.11155000329017639 -0.023617999628186226
          -0.005384999793022871 -0.14558400213718414 -0.028053000569343567 -0.005446999799460173 -0.07709000259637833 -0.004368999972939491
          -0.007081000134348869 -0.07701700180768967 -0.004865000024437904 -0.007344000041484833 -0.1369280070066452 -0.026498999446630478
          -0.0027920000720769167 -0.07531700283288956 -0.016380000859498978 -0.004356999881565571 -0.0390160009264946 -0.009127000346779823
          -0.006723999977111816 -0.046000998467206955 -0.0022819999139755964 -0.005179000087082386 -0.06182200089097023 -0.00292299990542233
          -0.0010079999919980764 -0.1063620001077652 -0.023414000868797302 0.0034600000362843275 -0.06654799729585648 -0.00660800002515316
          0.0036929999478161335 -0.07580900192260742 -0.014132999815046787 0.0013299999991431832 -0.08474799990653992 -0.0188400000333786
          -0.003914000000804663 -0.13199399411678314 -0.02699499949812889 0.0010310000507161021 -0.0753839984536171 -0.016240999102592468
          -0.0006319999811239541 -0.03244100138545036 -0.008162000216543674 -0.0032840000931173563 -0.02396799996495247 -0.00520299980416894
          -0.006506000179797411 -0.03055099956691265 -0.0043390002101659775 -0.003636999987065792 -0.027094999328255653 0.00482399994507432
          -0.006663000211119652 -0.026528000831604004 0.0026390000712126493 -0.00722600007429719 -0.027171000838279724 -0.0007619999814778566
          0.003415999934077263 -0.04857499897480011 -0.0023690001107752323 -0.000446999998530373 -0.04363999888300896 0.0018029999919235706
          0.0028099999763071537 -0.06144699826836586 -0.011017999611794949 0.0029349999967962503 -0.018761999905109406 -0.0036589999217540026
          -0.000056000000768108293 -0.018105000257492065 -0.004701999947428703 -0.006577999796718359 -0.01801699958741665 -0.0023880000226199627
          -0.004395999945700169 -0.01399100013077259 -0.004581000190228224 -0.005425000097602606 -0.02355399914085865 0.0031479999888688326
          -0.0012069999938830733 -0.024063000455498695 0.004947999957948923 0.0008679999737069011 -0.035544998943805695 0.0039369999431073666
          0.0010470000561326742 -0.031617000699043274 0.0047240001149475574 -0.0065460000187158585 -0.018377000465989113 0.002194999950006604
          -0.007400999777019024 -0.016016999259591103 -0.00016599999798927456 0.003478999948129058 -0.044502999633550644 -0.0013879999751225114
          0.0027149999514222145 -0.04426800087094307 -0.00034500000765547156 0.0023399998899549246 -0.040314000099897385 0.0020639998838305473
          0.004772000014781952 -0.024183999747037888 0.0015310000162571669 0.00443299999460578 -0.01874700002372265 -0.0006970000104047358
          0.004550999961793423 -0.01004599966108799 0.00024500000290572643 0.0038620000705122948 -0.010010999627411366 -0.002736999886110425
          0.002311999909579754 -0.009755999781191349 -0.004922000225633383 0.000060999998822808266 -0.009266999550163746 -0.006087999790906906
          -0.00279300007969141 -0.009484999813139439 -0.00620400020852685 -0.007544000167399645 -0.009580999612808228 -0.002727000042796135
          -0.004422000143676996 -0.019166000187397003 0.004021000117063522 0.002230999991297722 -0.01949400082230568 0.0038870000280439854
          -0.0008379999781027436 -0.01154599990695715 0.006632999982684851 0.002005999907851219 -0.015364999882876873 0.0042940001003444195
          0.0031900000758469105 -0.03185399994254112 0.0035099999513477087 0.0036299999337643385 -0.02423200011253357 0.0033970000222325325
          -0.006674000062048435 -0.01347300037741661 0.003189000068232417 -0.007898000068962574 -0.00952799990773201 -0.0014049999881535769
          0.0038880000356584787 -0.019425999373197556 0.002119000069797039 0.0038109999150037766 -0.014798000454902649 0.00216299993917346
          0.0032550001051276922 -0.010963999666273594 0.003994999919086695 0.005934999790042639 -0.007420999929308891 0.006118999794125557
          0.0062950002029538155 -0.007474000100046396 0.000012000000424450263 0.007757999934256077 -0.005096000153571367 -0.004224000032991171
          0.005231999792158604 -0.004720999859273434 -0.00762399984523654 0.000526999996509403 -0.004327000118792057 -0.010147999972105026
          0.003066000062972307 -0.00445100013166666 -0.009379000402987003 -0.008383999578654766 -0.004302999936044216 -0.006957000121474266
          -0.0032949999440461397 -0.0044559999369084835 -0.009921000339090824 -0.010382999666035175 -0.004497000016272068 -0.0023109999019652605
          -0.003922999836504459 -0.011274999938905239 0.005973000079393387 0.0034920000471174717 -0.009097999893128872 0.007207999937236309
          0.0022090000566095114 -0.011467999778687954 0.005278000142425299 -0.000623999978415668 -0.009399999864399433 0.008426999673247337
          -0.007046999875456095 -0.009991999715566635 0.003083999967202544 -0.010445999912917614 -0.004621999803930521 0.0005890000029467046
          0.003386999946087599 -0.005394000094383955 0.008431999944150448 0.00558000011369586 -0.000391999987186864 0.007261000107973814
          0.007822000421583652 -0.006407999899238348 0.003515999997034669 0.008658000268042088 -0.0057749999687075615 0.0001740000006975606
          0.00798800028860569 -0.002455000067129731 -0.004044999834150076 0.0056329998187720776 -0.00164899998344481 -0.0073090000078082085
          -0.001339999958872795 -0.0014690000098198652 -0.010181999765336514 0.003438000101596117 0.0006960000027902424 -0.00798800028860569
          -0.00660800002515316 -0.000037999998312443495 -0.007872999645769596 -0.003223000094294548 -0.0015310000162571669 -0.010181999765336514
          -0.009383000433444977 -0.0011360000353306532 -0.0054720002226531506 -0.009975000284612179 -0.0011390000581741333 -0.0039820000529289246
          -0.010169999673962593 0.0013549999566748738 -0.0019460000330582261 -0.01052900031208992 -0.0014319999609142542 0.0011220000451430678
          -0.003776000114157796 -0.008705000393092632 0.007860000245273113 -0.008142000064253807 -0.0062489998526871204 0.004253000020980835
          -0.003607999999076128 -0.0031950001139193773 0.009031999856233597 -0.001905999961309135 -0.004883999936282635 0.009198999963700771
          0.0003380000125616789 -0.0005680000176653266 0.00964299961924553 0.007953999564051628 0.0004459999909158796 0.0007580000092275441
          0.004664999898523092 0.000666000007186085 0.006120999809354544 0.00775599991902709 -0.00003400000059627928 -0.003134000115096569
          0.005621999967843294 0.00027200000477023423 -0.006268000230193138 -0.0025259999092668295 0.0009360000258311629 -0.009178999811410904
          0.0026730000972747803 0.0014189999783411622 -0.00660899979993701 -0.008684000000357628 0.0015559999737888575 -0.004980000201612711
          -0.006184999831020832 0.001339999958872795 -0.0073910001665353775 -0.008503999561071396 0.001057000015862286 0.004228999838232994
          -0.008496999740600586 0.002203000010922551 -0.0014949999749660492 -0.009200000204145908 -0.0018119999440386891 0.004160999786108732
          -0.003292999928817153 -0.00006500000017695129 0.009131000377237797 -0.0027970001101493835 0.0010949999559670687 0.007737999781966209
          0.0070130000822246075 0.0004769999941345304 -0.0030400000978261232 0.0016609999584034085 -0.0004030000127386302 0.0011820000363513827
          -0.007280000019818544 0.0023129999171942472 -0.0040420000441372395 -0.007127000018954277 0.0020630001090466976 0.00367600005120039
          <InformationKey name="L2_NORM_RANGE" location="vtkDataArray" length="2">
            <Value index="0">
              0.0020780890159
            </Value>
            <Value index="1">
              0.2409051639
            </Value>
          </InformationKey>
        </DataArray>
      </Points>
      <Verts>
        <DataArray type="Int64" Name="connectivity" format="ascii" RangeMin="1e+299" RangeMax="-1e+299">
        </DataArray>
        <DataArray type="Int64" Name="offsets" format="ascii" RangeMin="1e+299" RangeMax="-1e+299">
        </DataArray>
      </Verts>
      <Lines>
        <DataArray type="Int64" Name="connectivity" format="ascii" RangeMin="1e+299" RangeMax="-1e+299">
        </DataArray>
        <DataArray type="Int64" Name="offsets" format="ascii" RangeMin="1e+299" RangeMax="-1e+299">
        </DataArray>
      </Lines>
      <Strips>
        <DataArray type="Int64" Name="connectivity" format="ascii" RangeMin="1e+299" RangeMax="-1e+299">
        </DataArray>
        <DataArray type="Int64" Name="offsets" format="ascii" RangeMin="1e+299" RangeMax="-1e+299">
        </DataArray>
      </Strips>
      <Polys>
        <DataArray type="Int32" Name="connectivity" format="ascii" RangeMin="0" RangeMax="193">
          2 1 0 4 3 0
          0 6 5 6 0 3
          0 5 2 4 0 1
          7 1 2 8 4 1
          1 7 8 10 2 9
          2 10 7 5 9 2
          11 3 4 6 3 11
          12 4 8 13 4 12
          4 13 11 14 5 6
          14 15 5 15 16 5
          9 5 16 11 14 6
          18 17 7 10 18 7
          20 19 7 19 8 7
          21 20 7 17 21 7
          23 22 8 8 24 12
          22 24 8 23 8 25
          25 8 26 8 19 26
          27 9 16 28 9 27
          18 9 28 18 10 9
          13 14 11 29 12 24
          12 30 13 30 12 29
          14 13 31 13 30 31
          14 32 15 33 32 14
          33 14 31 34 16 15
          32 34 15 27 16 34
          17 28 35 36 21 17
          37 17 35 37 36 17
          28 17 18 26 19 38
          20 38 19 39 20 21
          38 20 39 36 39 21
          40 22 23 22 29 24
          41 29 22 41 22 40
          23 25 42 23 43 40
          42 43 23 44 25 26
          25 44 45 45 42 25
          26 38 46 26 46 44
          48 27 47 34 47 27
          48 28 27 28 48 49
          28 49 35 30 29 50
          51 29 41 29 51 50
          52 30 50 31 30 52
          31 52 33 32 33 53
          47 32 53 32 47 34
          53 33 54 52 54 33
          55 35 49 55 37 35
          39 36 37 55 39 37
          39 46 38 55 46 39
          56 41 40 40 43 56
          57 41 56 57 51 41
          42 45 58 42 58 43
          59 43 58 43 59 56
          60 44 46 60 45 44
          58 45 60 62 46 61
          46 62 60 55 61 46
          48 47 63 63 47 64
          64 47 65 47 53 65
          49 48 66 63 66 48
          66 55 49 67 52 50
          51 67 50 67 51 57
          52 67 54 53 68 65
          68 53 54 70 69 54
          54 69 68 54 67 57
          70 54 62 62 54 56