<?xml version="1.0"?>
<VTKFile type="PolyData" version="0.1" byte_order="LittleEndian" header_type="UInt32" compressor="vtkZLibDataCompressor">
  <PolyData>
    <Piece NumberOfPoints="211" NumberOfVerts="0" NumberOfLines="0" NumberOfStrips="0" NumberOfPolys="390">
      <PointData Normals="Normals">
        <DataArray type="Float32" Name="Normals" NumberOfComponents="3" format="ascii" RangeMin="0.9996010320239465" RangeMax="1.0000007042699746">
          0.08564399927854538 0.9769440293312073 -0.19556400179862976 0.20415599644184113 0.9609159827232361 -0.1869789958000183
          0.2575179934501648 0.9564059972763062 -0.13481199741363525 0.037376999855041504 0.9981909990310669 -0.04708600044250488
          -0.02229899913072586 0.9959830045700073 -0.08672600239515305 -0.42599499225616455 0.8420069813728333 0.33098599314689636
          -0.14646300673484802 0.9836660027503967 -0.10464300215244293 -0.09574499726295471 0.9770190119743347 -0.19044099748134613
          -0.008194000460207462 0.9962760210037231 -0.08582600206136703 -0.03586599975824356 -0.8748810291290283 -0.48300701379776
          -0.29612600803375244 -0.926069974899292 0.23388800024986267 -0.20785999298095703 -0.9326170086860657 0.29499098658561707
          -0.20203299820423126 -0.8421480059623718 -0.4999699890613556 -0.48006799817085266 -0.8652529716491699 0.1444689929485321
          -0.1239439994096756 -0.7439349889755249 -0.6566569805145264 -0.6333600282669067 -0.7735090255737305 -0.023221999406814575
          0.3314110040664673 -0.7311729788780212 -0.5962830185890198 -0.7448449730873108 -0.6365129947662354 -0.2001439929008484
          0.588545024394989 -0.6757310032844543 0.44384899735450745 -0.7570019960403442 -0.6524249911308289 -0.03592300042510033
          -0.0825209990143776 -0.8238279819488525 0.5608019828796387 -0.6087639927864075 -0.7911350131034851 -0.05925700068473816
          -0.2846910059452057 -0.8608279824256897 0.4218130111694336 -0.3157060146331787 -0.8884490132331848 -0.3331480026245117
          -0.14028200507164001 -0.9107679724693298 0.388359010219574 -0.14829300343990326 -0.8898789882659912 -0.43142199516296387
          -0.010564000345766544 -0.8009099960327148 0.598691999912262 0.09205000102519989 -0.9638519883155823 -0.25003400444984436
          -0.07185599952936172 -0.6832720041275024 0.7266190052032471 -0.09180799871683121 -0.8691210150718689 -0.4860039949417114
          -0.834388017654419 -0.5426999926567078 0.0962970033288002 -0.20608900487422943 -0.9073489904403687 -0.3663940131664276
          -0.9647589921951294 -0.24005000293254852 0.10778000205755234 -0.10087300091981888 -0.9941669702529907 0.03816499933600426
          -0.849494993686676 -0.4549970030784607 -0.26708799600601196 -0.04322199895977974 -0.9723740220069885 0.2293899953365326
          -0.43870899081230164 -0.6687570214271545 -0.6002489924430847 -0.35201799869537354 -0.8909459710121155 0.2868790030479431
          -0.042688000947237015 -0.7242730259895325 -0.6881909966468811 0.4751800000667572 -0.6012910008430481 -0.6423810124397278
          0.2907649874687195 0.9530540108680725 0.08452499657869339 0.05253800004720688 0.35779398679733276 -0.9323210120201111
          0.2089329957962036 -0.011793999932706356 -0.9778590202331543 -0.037762999534606934 0.41264399886131287 -0.9101089835166931
          0.056529998779296875 -0.17228500545024872 -0.9834240078926086 0.6687210202217102 0.4419179856777191 -0.5979310274124146
          0.5505480170249939 -0.20962099730968475 -0.8080570101737976 0.9973750114440918 -0.04836700111627579 0.053895000368356705
          0.7639859914779663 0.29155901074409485 0.5756030082702637 0.6210359930992126 -0.1320739984512329 0.7725750207901001
          0.5680950284004211 0.09869600087404251 0.817022979259491 0.2465510070323944 -0.3628700077533722 0.8986309766769409
          0.17270800471305847 0.16175000369548798 0.9716010093688965 -0.10263100266456604 -0.398404985666275 0.9114490151405334
          -0.257066011428833 0.17879100143909454 0.9497110247612 -0.09825500100851059 -0.165476992726326 0.9813070297241211
          -0.7147970199584961 0.31561100482940674 0.6240630149841309 -0.7180219888687134 -0.13095399737358093 0.6835899949073792
          -0.999064028263092 0.039636000990867615 0.017324000597000122 -0.8902590274810791 0.3307409882545471 -0.3131290078163147
          -0.8863300085067749 0.299237996339798 -0.3533779978752136 -0.140515998005867 0.4859740138053894 -0.8626030087471008
          -0.17042499780654907 0.09824500232934952 -0.9804610013961792 0.14050500094890594 0.47242000699043274 -0.8701019883155823
          0.0709109976887703 0.12799300253391266 -0.9892370104789734 0.09378500282764435 0.2432679980993271 -0.9654139876365662
          0.6838160157203674 0.4378829896450043 -0.5836560130119324 0.8868359923362732 0.34549999237060547 0.3068409860134125
          0.525056004524231 0.3000040054321289 0.7964379787445068 -0.04729599878191948 0.2745020091533661 0.9604229927062988
          -0.3900800049304962 0.30938801169395447 0.8672459721565247 -0.8718469738960266 0.3653309941291809 0.326214998960495
          -0.5243350267410278 0.30463701486587524 -0.795153021812439 0.004410000052303076 0.27044299244880676 -0.9627259969711304
          0.05153600126504898 -0.005588999949395657 -0.9986550211906433 0.22029800713062286 0.0072119999676942825 -0.9754059910774231
          0.8425289988517761 0.1488019973039627 -0.5176900029182434 0.8137400150299072 0.15535399317741394 0.5600820183753967
          0.4366399943828583 0.17002299427986145 0.8834239840507507 -0.26095500588417053 0.1991170048713684 0.9445930123329163
          -0.7726250290870667 0.2113189995288849 0.5986610054969788 -0.8186579942703247 0.1255970001220703 -0.5603790283203125
          -0.12148100137710571 0.019770000129938126 -0.9923509955406189 0.07548700273036957 -0.09386499971151352 -0.9927189946174622
          0.46457499265670776 -0.04690299928188324 -0.8842909932136536 0.9957630038261414 0.09028699994087219 -0.01742600090801716
          0.7445030212402344 0.13056200742721558 0.6547279953956604 0.1118210032582283 0.12474100291728973 0.985867977142334
          -0.6598979830741882 0.09843999892473221 0.7448779940605164 -0.9966269731521606 0.05038199946284294 -0.0647829994559288
          -0.3042539954185486 -0.05960100144147873 -0.9507250189781189 -0.1017019972205162 -0.08002399653196335 -0.9915909767150879
          0.03320800140500069 -0.09410499781370163 -0.9950079917907715 0.15482400357723236 -0.04101800173521042 -0.987089991569519
          0.5081170201301575 -0.022214999422430992 -0.8610020279884338 0.5393339991569519 -0.05230800062417984 -0.8404660224914551
          0.997484028339386 0.06970900297164917 0.01292600017040968 0.9864029884338379 0.10813800245523453 0.12375599890947342
          0.693343997001648 0.10629600286483765 0.712723970413208 0.5656939744949341 0.11896800249814987 0.8159880042076111
          -0.24065400660037994 0.05951400101184845 0.9687849879264832 -0.28277501463890076 0.053040001541376114 0.9577190279960632
          -0.8232150077819824 0.029443999752402306 0.5669649839401245 -0.7916150093078613 -0.017381999641656876 0.6107730269432068
          -0.9340670108795166 -0.05149399861693382 -0.3533639907836914 -0.9318940043449402 -0.1408199965953827 -0.3342820107936859
          -0.28634199500083923 -0.08975300192832947 -0.9539139866828918 -0.016078999266028404 -0.08203499764204025 -0.9965000152587891
          0.016582999378442764 -0.04728800058364868 -0.998744010925293 -0.07523900270462036 -0.18552599847316742 -0.9797549843788147
          0.8277760148048401 0.051701001822948456 -0.5586709976196289 0.9478759765625 0.17975099384784698 0.26309698820114136
          0.5239149928092957 0.18382200598716736 0.831699013710022 -0.23408600687980652 0.11652500182390213 0.9652079939842224
          -0.6564750075340271 -0.0034680000972002745 0.7543399930000305 -0.9546160101890564 -0.21073299646377563 -0.21047599613666534
          -0.14903900027275085 -0.17550399899482727 -0.9731320142745972 -0.023793000727891922 -0.2064169943332672 -0.9781749844551086
          0.40771299600601196 -0.07251600176095963 -0.9102259874343872 0.7931830286979675 0.06578099727630615 -0.6054210066795349
          0.768517017364502 0.12257400155067444 -0.6279789805412292 0.9479429721832275 0.2570450007915497 0.18796899914741516
          0.9172859787940979 0.31723999977111816 0.24071800708770752 0.4504300057888031 0.29758501052856445 0.8417580127716064
          0.6004229784011841 0.2787669897079468 0.749521017074585 -0.03340400010347366 0.18688899278640747 0.9818130135536194
          0.12899599969387054 0.18119600415229797 0.9749500155448914 -0.4684840142726898 0.01537100039422512 0.8833379745483398
          -0.5938230156898499 -0.027185000479221344 0.8041359782218933 -0.9296309947967529 -0.23730100691318512 -0.28191301226615906
          -0.881305992603302 -0.24290600419044495 -0.4053359925746918 -0.2700049877166748 -0.19954699277877808 -0.9419549703598022
          -0.43335598707199097 -0.2883870005607605 -0.8538359999656677 -0.3931420147418976 -0.27074700593948364 -0.878711998462677
          0.29538100957870483 -0.25962400436401367 -0.9194269776344299 0.3732619881629944 0.031132999807596207 -0.9272040128707886
          0.6637330055236816 0.09035100042819977 -0.7424920201301575 0.5899779796600342 -0.14810800552368164 -0.7937189936637878
          0.9698830246925354 0.22277499735355377 0.09848099946975708 0.9687659740447998 0.24027499556541443 0.06132299825549126
          0.5590590238571167 0.24300099909305573 0.7927190065383911 0.44481098651885986 0.20339499413967133 0.8722230195999146
          -0.1866540014743805 0.07859999686479568 0.9792760014533997 -0.34018200635910034 0.043696001172065735 0.9393439888954163
          -0.8125159740447998 -0.09523700177669525 0.5751069784164429 -0.8601559996604919 -0.16029900312423706 0.48418599367141724
          -0.8744509816169739 -0.2902820110321045 -0.38868001103401184 -0.8865270018577576 -0.3713740110397339 -0.2759549915790558
          -0.49162301421165466 -0.36444899439811707 -0.7908750176429749 -0.18592099845409393 -0.28255701065063477 -0.9410600066184998
          -0.0692019984126091 -0.15642200410366058 -0.9852629899978638 -0.08448400348424911 -0.4067150056362152 -0.9096400141716003
          0.7429959774017334 0.015738999471068382 -0.6691110134124756 0.9805120229721069 0.19084499776363373 0.04664099961519241
          0.42223799228668213 0.17549200356006622 0.8893349766731262 -0.4279009997844696 -0.001630999962799251 0.903823971748352
          -0.8221780061721802 -0.17441600561141968 0.5418509840965271 -0.9221630096435547 -0.2786659896373749 -0.2682569921016693
          0.6586419939994812 0.09736000001430511 -0.7461310029029846 0.5970569849014282 -0.05548899993300438 -0.8002769947052002
          0.7783420085906982 0.08533000200986862 -0.6220139861106873 0.8336229920387268 0.13961200416088104 -0.5343980193138123
          0.9610000252723694 0.24304699897766113 0.13193699717521667 0.9180830121040344 0.2416680008172989 0.3141990005970001
          0.3169110119342804 0.2043370008468628 0.926181972026825 0.2883029878139496 0.18946200609207153 0.9386079907417297
          -0.4557200074195862 0.03933100029826164 0.8892539739608765 -0.47246599197387695 0.07190900295972824 0.8784109950065613
          -0.8513460159301758 -0.08539000153541565 0.5176079869270325 -0.8827589750289917 -0.009932000190019608 0.4697220027446747
          -0.9218659996986389 -0.2631109952926636 -0.28449198603630066 -0.9504330158233643 0.014696000143885612 -0.3105829954147339
          -0.36770200729370117 -0.20643700659275055 -0.9067410230636597 -0.40759700536727905 0.02937600016593933 -0.9126889705657959
          -0.004875000100582838 -0.11051499843597412 -0.993861973285675 -0.1942099928855896 0.10171899944543839 -0.9756720066070557
          0.05986199900507927 -0.2855690121650696 -0.9564869999885559 0.45963698625564575 0.11546400189399719 -0.8805689811706543
          0.7794010043144226 -0.0878010019659996 -0.620343029499054 0.5565329790115356 -0.48716598749160767 -0.6730080246925354
          0.9397670030593872 -0.1138399988412857 0.3223010003566742 0.9773920178413391 -0.1671070009469986 0.12954099476337433
          0.479203999042511 -0.043901000171899796 0.8766049742698669 0.5971680283546448 -0.2935590147972107 0.7464669942855835
          -0.21482700109481812 -0.10168399661779404 0.971343994140625 0.06905800104141235 -0.25542500615119934 0.9643589854240417
          -0.7380930185317993 -0.1131730005145073 0.6651399731636047 -0.5879169702529907 -0.10030999779701233 0.8026779890060425
          -0.9817230105400085 -0.18581999838352203 0.041120998561382294 -0.940077006816864 -0.24578699469566345 0.23631300032138824
          -0.7070289850234985 -0.35700199007987976 -0.6104580163955688 -0.5684189796447754 -0.2529209852218628 -0.782899022102356
          -0.11580400168895721 -0.13511599600315094 -0.9840390086174011 0.5785620212554932 0.08678700029850006 -0.8110079765319824
          0.8452489972114563 0.08806999772787094 -0.5270649790763855 0.9312999844551086 0.11918199807405472 0.3442020118236542
          0.4097679853439331 0.06229500100016594 0.9100599884986877 -0.27511298656463623 -0.013566000387072563 0.9613159894943237
          -0.7543860077857971 -0.0536389984190464 0.6542360186576843 -0.9979889988899231 -0.05835700035095215 0.02473299950361252
          -0.7491179704666138 -0.07006099820137024 -0.6587219834327698 -0.4455220103263855 -0.09529899805784225 -0.8901849985122681
          -0.28001999855041504 0.8285459876060486 -0.4848720133304596 0.0645970031619072 0.011087999679148197 -0.9978500008583069
          0.5778430104255676 0.5874710083007812 -0.5665469765663147 0.9208899736404419 0.3896450102329254 -0.011768000200390816
          0.6439350247383118 0.5132499933242798 0.5673819780349731 -0.01295199990272522 0.6830019950866699 0.730301022529602
          -0.8921239972114563 0.45102500915527344 0.026280000805854797 -0.5053099989891052 0.5382149815559387 -0.6745269894599915
          -0.4187760055065155 0.5136119723320007 -0.748885989189148
          <InformationKey name="L2_NORM_RANGE" location="vtkDataArray" length="2">
            <Value index="0">
              0.99960103202
            </Value>
            <Value index="1">
              1.0000007043
            </Value>
          </InformationKey>
        </DataArray>
      </PointData>
      <CellData>
      </CellData>
      <Points>
        <DataArray type="Float32" Name="Points" NumberOfComponents="3" format="ascii" RangeMin="0.000625953654128825" RangeMax="0.24798270577056025">
          -0.0006629999843426049 0.0011409999569877982 -0.007926000282168388 0.005260999780148268 0.0012839999981224537 -0.006012000143527985
          0.007840000092983246 0.002032000105828047 0.0003499999875202775 0.006717999931424856 0.002672000089660287 0.005657999776303768
          0.0011439999798312783 0.0027260000351816416 0.008383000269532204 -0.0035729999653995037 0.002621999941766262 0.007854999974370003
          -0.0065910001285374165 0.0016759999562054873 0.0014049999881535769 -0.005167999770492315 0.0013470000121742487 -0.004521000199019909
          -0.00024399999529123306 0.00007899999764049426 -0.0005709999823011458 0.0280930008739233 -0.23396800458431244 0.018619999289512634
          0.023392999544739723 -0.23329000174999237 0.019432999193668365 0.02971399948000908 -0.23310500383377075 0.021772999316453934
          0.03346699848771095 -0.2351509928703308 0.01875700056552887 0.03243400156497955 -0.23393599689006805 0.02232700027525425
          0.03820500150322914 -0.237978994846344 0.020779000595211983 0.03459399938583374 -0.23523400723934174 0.02377999946475029
          0.04029100015759468 -0.24019299447536469 0.022154999896883965 0.035704001784324646 -0.23622199892997742 0.025005999952554703
          0.04101699963212013 -0.2433210015296936 0.02465599961578846 0.0361500009894371 -0.2371550053358078 0.026468999683856964
          0.039329998195171356 -0.240556001663208 0.02755500003695488 0.034481000155210495 -0.2357970029115677 0.027891000732779503
          0.034970998764038086 -0.23615600168704987 0.0298909991979599 0.03175999969244003 -0.23467999696731567 0.028743000701069832
          0.027893999591469765 -0.2352219969034195 0.03200199827551842 0.02744000032544136 -0.23312599956989288 0.028644999489188194
          0.019586000591516495 -0.23369100689888 0.03141700103878975 0.022915000095963478 -0.2327589988708496 0.027914000675082207
          0.0161920003592968 -0.23488199710845947 0.03218499943614006 0.020431000739336014 -0.2317509949207306 0.026464000344276428
          0.014360000379383564 -0.2339410036802292 0.03194199874997139 0.019514000043272972 -0.23132599890232086 0.024855000898241997
          0.014857999980449677 -0.2300730049610138 0.026204999536275864 0.018471000716090202 -0.23065300285816193 0.02355100028216839
          0.01063700020313263 -0.23182900249958038 0.017124999314546585 0.018834000453352928 -0.23101100325584412 0.02094399929046631
          0.01785000041127205 -0.2327120006084442 0.014670000411570072 0.021821999922394753 -0.23177500069141388 0.019785000011324883
          0.02262900024652481 -0.23402400314807892 0.014433999545872211 0.02828899957239628 -0.23398099839687347 0.01858000084757805
          0.026079000905156136 -0.23208600282669067 0.024684999138116837 0.02703999914228916 -0.22348199784755707 0.01826000027358532
          0.028805000707507133 -0.22994600236415863 0.014878000132739544 0.034446001052856445 -0.22435399889945984 0.01823499985039234
          0.035982999950647354 -0.22963200509548187 0.015371999703347683 0.041933998465538025 -0.22339899837970734 0.017551999539136887
          0.042146001011133194 -0.22818000614643097 0.0165570005774498 0.045850999653339386 -0.22880299389362335 0.025837000459432602
          0.042844999581575394 -0.2239830046892166 0.02865700051188469 0.03940799832344055 -0.22975799441337585 0.030621999874711037
          0.03813900053501129 -0.22383099794387817 0.03159699961543083 0.03209900110960007 -0.23039400577545166 0.03606799989938736
          0.03086799941956997 -0.22337700426578522 0.03689799830317497 0.026937000453472137 -0.22989299893379211 0.03617699816823006
          0.024739999324083328 -0.22325499355793 0.035406000912189484 0.01760599948465824 -0.22929300367832184 0.03438099846243858
          0.014135000295937061 -0.22354400157928467 0.032653000205755234 0.013132999651134014 -0.2286050021648407 0.033805001527071
          0.0147299999371171 -0.2275959998369217 0.025821000337600708 0.014693999662995338 -0.222788006067276 0.020183000713586807
          0.011605000123381615 -0.22853800654411316 0.017849000170826912 0.02096799947321415 -0.22310300171375275 0.017960000783205032
          0.01692900061607361 -0.22957299649715424 0.012210000306367874 0.028020000085234642 -0.22357499599456787 0.018578000366687775
          0.027096999809145927 -0.22044500708580017 0.019106000661849976 0.03542099893093109 -0.21941399574279785 0.01998700015246868
          0.040369998663663864 -0.2177489995956421 0.02016800083220005 0.03965400159358978 -0.2169010043144226 0.026395000517368317
          0.03337400034070015 -0.21802300214767456 0.033020999282598495 0.027222000062465668 -0.21863600611686707 0.03512699902057648
          0.019929999485611916 -0.21839800477027893 0.031911998987197876 0.01627499982714653 -0.21763600409030914 0.02981399931013584
          0.016352999955415726 -0.21772700548171997 0.02074499987065792 0.027943000197410583 -0.2199079990386963 0.019579999148845673
          0.027522999793291092 -0.20833399891853333 0.019979000091552734 0.03272600099444389 -0.20777800679206848 0.02024500072002411
          0.038453999906778336 -0.20733599364757538 0.023605000227689743 0.03562600165605545 -0.2059680074453354 0.027847999706864357
          0.03242100030183792 -0.20608200132846832 0.030706999823451042 0.0259380005300045 -0.20763500034809113 0.032485999166965485
          0.019137000665068626 -0.2083290070295334 0.028457999229431152 0.018372999504208565 -0.20831599831581116 0.02223300002515316
          0.028519999235868454 -0.208515003323555 0.02040800079703331 0.026373999193310738 -0.18403899669647217 0.017921000719070435
          0.03190099820494652 -0.18377399444580078 0.018358999863266945 0.034821998327970505 -0.18355900049209595 0.023065999150276184
          0.03260499984025955 -0.18314999341964722 0.02709200046956539 0.029285000637173653 -0.18139100074768066 0.028815999627113342
          0.02123500034213066 -0.1834769994020462 0.024608999490737915 0.018803000450134277 -0.18330399692058563 0.02067600004374981
          0.022081999108195305 -0.18347199261188507 0.018763000145554543 0.027223000302910805 -0.18398499488830566 0.018557000905275345
          0.02530200034379959 -0.13925300538539886 0.017960000783205032 0.025786999613046646 -0.1663530021905899 0.015637999400496483
          0.03177199885249138 -0.16601000726222992 0.01679299958050251 0.031055999919772148 -0.13909900188446045 0.015552000142633915
          0.033567000180482864 -0.16575400531291962 0.01998399943113327 0.03175700083374977 -0.13865600526332855 0.018334999680519104
          0.031076999381184578 -0.16722600162029266 0.02574400044977665 0.02923399955034256 -0.13853499293327332 0.02544800005853176
          0.025358999148011208 -0.16550999879837036 0.027262000367045403 0.02469700016081333 -0.13917900621891022 0.025464000180363655
          0.02112700045108795 -0.1657020002603531 0.02314000017940998 0.019354000687599182 -0.14029400050640106 0.021693000569939613
          0.02013999968767166 -0.1657640039920807 0.01934099942445755 0.01687300018966198 -0.14017899334430695 0.01654200069606304
          0.023132000118494034 -0.1662980020046234 0.01763799972832203 0.020826999098062515 -0.13923600316047668 0.015584000386297703
          0.02648100070655346 -0.16581200063228607 0.016865000128746033 0.022498000413179398 -0.11526799947023392 0.011420000344514847
          0.028188999742269516 -0.11453799903392792 0.013516999781131744 0.027161000296473503 -0.11355199664831161 0.019175000488758087
          0.024122999981045723 -0.11360199749469757 0.023329000920057297 0.02304700016975403 -0.11411699652671814 0.023724999278783798
          0.017033999785780907 -0.11566200107336044 0.01881200075149536 0.013148000463843346 -0.11658400297164917 0.014604000374674797
          0.01748800091445446 -0.11559999734163284 0.01252800039947033 0.013946999795734882 -0.07395900040864944 0.003978000022470951
          0.01869799941778183 -0.08836500346660614 0.00661400007084012 0.022738000378012657 -0.08715099841356277 0.00848700013011694
          0.01787099987268448 -0.07153700292110443 0.005415999796241522 0.024102000519633293 -0.08664000034332275 0.01348899956792593
          0.018484000116586685 -0.07124999910593033 0.010812000371515751 0.020913999527692795 -0.08655399829149246 0.01786400005221367
          0.01471799984574318 -0.07124900072813034 0.014394000172615051 0.01898300088942051 -0.08677099645137787 0.017992999404668808
          0.01385399978607893 -0.07083000242710114 0.015041000209748745 0.013341999612748623 -0.08797600120306015 0.017284000292420387
          0.00685499981045723 -0.07193899899721146 0.013166000135242939 0.007002000231295824 -0.09123100340366364 0.010799000039696693
          0.004052000120282173 -0.07376299798488617 0.008531000465154648 0.013518000021576881 -0.0888189971446991 0.009421000257134438
          0.008957999758422375 -0.07340999692678452 0.0064130001701414585 0.01880900003015995 -0.08810599893331528 0.007073000073432922
          0.004515000153332949 -0.0469059981405735 0.002380999969318509 0.009603999555110931 -0.06069900095462799 0.0011919999960809946
          0.014159999787807465 -0.05827200040221214 0.0032160000409930944 0.010470000095665455 -0.04602799937129021 0.0009319999953731894
          0.015937000513076782 -0.05660900101065636 0.007883000187575817 0.012891000136733055 -0.04443100094795227 0.005264999810606241
          0.012695999816060066 -0.05639300122857094 0.01245999988168478 0.007681000046432018 -0.044071998447179794 0.011169999837875366
          0.0074339997954666615 -0.05763399973511696 0.013116000220179558 0.0031320000998675823 -0.04559500142931938 0.01140000019222498
          0.002615999896079302 -0.06015099957585335 0.010335000231862068 -0.00030300000798888505 -0.04618600010871887 0.008290999568998814
          0.0024739999789744616 -0.060676999390125275 0.006310999859124422 -0.0016270000487565994 -0.047961000353097916 0.0013780000153928995
          0.00686000008136034 -0.060888998210430145 0.002828999888151884 0.0009449999779462814 -0.046448998153209686 -0.0010049999691545963
          0.01001300010830164 -0.06080999970436096 0.001221999991685152 0.004011999815702438 -0.04153899848461151 -0.003504999913275242
          0.009607999585568905 -0.03988400101661682 -0.00016399999731220305 0.011567999608814716 -0.03849799931049347 0.003984000068157911
          0.0076299998909235 -0.03779999911785126 0.010502000339329243 0.0003129999968223274 -0.039746999740600586 0.009829999879002571
          -0.0021470000501722097 -0.040081001818180084 0.007408999837934971 -0.0042570000514388084 -0.04103599861264229 0.0019000000320374966
          0.003785999957472086 -0.02919900044798851 -0.004889999981969595 0.004523999989032745 -0.035996999591588974 -0.004201000090688467
          0.007660999894142151 -0.03487199917435646 -0.0017130000051110983 0.0076790000312030315 -0.02646300010383129 -0.0007040000054985285
          0.010443000122904778 -0.03277299925684929 0.004230999853461981 0.008187999948859215 -0.025203000754117966 0.004387000110000372
          0.0053969998843967915 -0.033316999673843384 0.010214000009000301 0.0034680000972002745 -0.0245789997279644 0.008608999662101269
          -0.0006629999843426049 -0.03412599861621857 0.009337999857962132 -0.0024139999877661467 -0.025894999504089355 0.007759000174701214
          -0.0036140000447630882 -0.03542900085449219 0.006318000145256519 -0.004951999988406897 -0.027660999447107315 0.004399000201374292
          -0.005162000190466642 -0.037696998566389084 0.0009560000034980476 -0.005797000136226416 -0.029058000072836876 -0.00029399999766610563
          0.0009139999747276306 -0.03763899952173233 -0.003845999948680401 0.0004250000056345016 -0.02936599962413311 -0.004772000014781952
          0.004480999894440174 -0.03557100147008896 -0.004038999788463116 0.0036879999097436666 -0.029193000867962837 -0.0048699998296797276
          -0.0013180000241845846 -0.005181000102311373 -0.0027050001081079245 0.0008779999916441739 -0.012617000378668308 -0.004687999840825796
          0.005888999905437231 -0.011243999935686588 -0.002114000031724572 0.0076870000921189785 -0.004629999864846468 -0.007333999965339899
          0.0064860000275075436 -0.009868999943137169 0.003869999898597598 0.009805000387132168 -0.0036410000175237656 -0.0008040000102482736
          0.003387999953702092 -0.01040599960833788 0.00737700005993247 0.006225999910384417 -0.0021200000774115324 0.008213999681174755
          -0.0017999999690800905 -0.00956599973142147 0.007759000174701214 0.0002280000044265762 -0.0017369999550282955 0.010266000404953957
          -0.004739999771118164 -0.010735999792814255 0.005748999770730734 -0.0035230000503361225 -0.0027809999883174896 0.009752999991178513
          -0.005663999821990728 -0.011212999932467937 0.0018850000342354178 -0.008682000450789928 -0.00532899983227253 0.0028250000905245543
          -0.003800000064074993 -0.011508000083267689 -0.002902999985963106 -0.006451999768614769 -0.006752000190317631 -0.005814999807626009
          0.001016999944113195 -0.012016000226140022 -0.004689000081270933 0.001959000015631318 -0.022311000153422356 -0.00443200021982193
          0.006692999973893166 -0.020555999130010605 -0.00133200001437217 0.006810000166296959 -0.01940299943089485 0.004370000213384628
          0.0038030000869184732 -0.0189800001680851 0.007532000076025724 -0.001246000058017671 -0.0197369996458292 0.008082999847829342
          -0.0037579999770969152 -0.020555000752210617 0.006556999869644642 -0.004920999985188246 -0.020888999104499817 0.004476999863982201
          -0.003768000053241849 -0.021220000460743904 -0.0007740000146441162 0.002339000115171075 -0.022182000800967216 -0.004116999916732311
          -0.0004290000069886446 0.001053999993018806 -0.007759000174701214 -0.0006019999855197966 -0.00011000000085914508 -0.009740999899804592
          0.007116000168025494 0.0001990000018849969 -0.00761099997907877 0.010042999871075153 0.0007259999983943999 0.002515000058338046
          0.00816699955612421 0.0022070000413805246 0.00788000039756298 0.0016599999507889152 0.0024449999909847975 0.010986000299453735
          -0.009109999984502792 0.0007810000097379088 0.0023620000574737787 -0.006924999877810478 0.0002690000110305846 -0.0062790000811219215
          -0.0006259999936446548 -0.0002209999947808683 -0.00982499960809946
          <InformationKey name="L2_NORM_RANGE" location="vtkDataArray" length="2">
            <Value index="0">
              0.00062595365413
            </Value>
            <Value index="1">
              0.24798270577
            </Value>
          </InformationKey>
        </DataArray>
      </Points>
      <Verts>
        <DataArray type="Int64" Name="connectivity" format="ascii" RangeMin="1e+299" RangeMax="-1e+299">
        </DataArray>
        <DataArray type="Int64" Name="offsets" format="ascii" RangeMin="1e+299" RangeMax="-1e+299">
        </DataArray>
      </Verts>
      <Lines>
        <DataArray type="Int64" Name="connectivity" format="ascii" RangeMin="1e+299" RangeMax="-1e+299">
        </DataArray>
        <DataArray type="Int64" Name="offsets" format="ascii" RangeMin="1e+299" RangeMax="-1e+299">
        </DataArray>
      </Lines>
      <Strips>
        <DataArray type="Int64" Name="connectivity" format="ascii" RangeMin="1e+299" RangeMax="-1e+299">
        </DataArray>