<?xml version="1.0"?>
<VTKFile type="PolyData" version="0.1" byte_order="LittleEndian" header_type="UInt32" compressor="vtkZLibDataCompressor">
  <PolyData>
    <Piece NumberOfPoints="2752" NumberOfVerts="0" NumberOfLines="0" NumberOfStrips="0" NumberOfPolys="5412">
      <PointData Normals="Normals">
        <DataArray type="Float32" Name="Normals" NumberOfComponents="3" format="ascii" RangeMin="0.99999929333234" RangeMax="1.0000008473398518">
          -0.9995390176773071 0.006705000065267086 -0.02961999922990799 0.02438800036907196 -0.9996359944343567 -0.011556999757885933
          -0.7462400197982788 -0.5374389886856079 -0.3927919864654541 0.1247439980506897 0.8964089751243591 -0.42531099915504456
          -0.9503549933433533 -0.21359799802303314 -0.22627699375152588 -0.10185500234365463 -0.8173320293426514 0.5670920014381409
          -0.38844600319862366 0.7305619716644287 -0.5615950226783752 -0.001664999988861382 -0.9838430285453796 -0.17902499437332153
          0.9850069880485535 -0.07530999928712845 0.15521100163459778 0.9165809750556946 0.06704600155353546 -0.3941890001296997
          -0.5309209823608398 -0.8450109958648682 -0.06387700140476227 -0.8243589997291565 0.5532010197639465 -0.12000200152397156
          0.4008300006389618 0.013850999996066093 -0.916047990322113 0.8652880191802979 -0.46858400106430054 0.17806200683116913
          -0.08194600045681 -0.9370440244674683 0.33946099877357483 -0.06471399962902069 -0.962565004825592 -0.2632110118865967
          0.8673639893531799 -0.03617300093173981 -0.4963580071926117 -0.1632860004901886 0.9025300145149231 0.3984690010547638
          -0.7069140076637268 -0.6472319960594177 0.2852430045604706 0.8408330082893372 -0.03744899854063988 -0.5399979948997498
          -0.16741999983787537 -0.9256510138511658 -0.3393250107765198 0.14719299972057343 0.8771700263023376 0.4570629894733429
          -0.6373339891433716 -0.3340170085430145 0.6944329738616943 0.2129179984331131 0.8021159768104553 0.5579209923744202
          0.6460250020027161 -0.0035290000960230827 -0.7633079886436462 -0.28273099660873413 -0.9191539883613586 -0.274260014295578
          -0.5847960114479065 -0.2595990002155304 0.7685189843177795 0.14613500237464905 0.8268190026283264 0.5431519746780396
          -0.5160229802131653 -0.3895289897918701 0.7628809809684753 0.40440601110458374 0.15638799965381622 -0.9011099934577942
          -0.34564900398254395 -0.8713709712028503 -0.3481940031051636 0.22728599607944489 0.7757779955863953 0.5886499881744385
          -0.5080270171165466 -0.47073400020599365 0.7213299870491028 -0.45101499557495117 -0.670894980430603 -0.5886300206184387
          0.27470898628234863 0.3418790102005005 -0.8986960053443909 -0.4602360129356384 -0.390188992023468 0.7974550127983093
          0.40481099486351013 0.6750509738922119 0.6167939901351929 -0.6358050107955933 -0.2306870073080063 -0.7365700006484985
          0.3160269856452942 0.6301609873771667 -0.7092419862747192 -0.7738540172576904 -0.25421300530433655 -0.5801079869270325
          -0.25779101252555847 -0.561057984828949 0.7866119742393494 0.5927659869194031 0.5131019949913025 0.6207690238952637
          0.24379800260066986 0.7043899893760681 -0.6666319966316223 -0.6851869821548462 -0.4788399934768677 -0.5488460063934326
          0.14371100068092346 0.7353249788284302 -0.6623029708862305 -0.15140700340270996 -0.6532989740371704 0.7418059706687927
          0.7218859791755676 0.45077401399612427 0.525056004524231 0.1163560003042221 0.6923589706420898 -0.7121099829673767
          -0.7107179760932922 -0.47265300154685974 -0.5210360288619995 0.8487210273742676 0.4270249903202057 0.3119640052318573
          -0.04192499816417694 -0.7148259878158569 0.6980440020561218 0.8702690005302429 0.45434001088142395 0.1902800053358078
          0.09545700252056122 0.7525920271873474 -0.6515309810638428 -0.814320981502533 -0.3111740052700043 -0.4899510145187378
          0.15236300230026245 -0.7276830077171326 0.6687769889831543 0.8784109950065613 0.38513100147247314 0.28296199440956116
          0.18976199626922607 -0.7415879964828491 0.6434580087661743 0.13202199339866638 0.8202909827232361 -0.5565009713172913
          -0.8766509890556335 -0.17705599963665009 -0.4473649859428406 0.8536959886550903 0.11585500091314316 -0.5077199935913086
          0.5262809991836548 -0.8099589943885803 0.25883498787879944 -0.3893809914588928 -0.6321300268173218 -0.6699209809303284
          0.011423000134527683 0.49192699790000916 -0.8705610036849976 -0.06365399807691574 -0.8462849855422974 0.5289139747619629
          0.5314120054244995 -0.3252449929714203 0.7821869850158691 0.24785900115966797 -0.07929500192403793 0.9655460119247437
          -0.19858600199222565 -0.6928179860115051 0.6932290196418762 0.6972240209579468 -0.6015679836273193 -0.3898650109767914
          -0.5487279891967773 -0.6131640076637268 -0.5682680010795593 0.5476490259170532 0.8251420259475708 0.13864099979400635
          0.8951830267906189 0.40281298756599426 -0.19075800478458405 0.2662470042705536 0.050829000771045685 0.9625639915466309
          0.4650439918041229 0.8831130266189575 -0.0620109997689724 -0.2595750093460083 -0.7554619908332825 0.601580023765564
          0.006260000169277191 0.20630300045013428 -0.9784680008888245 0.4970940053462982 0.5413910150527954 -0.6780809760093689
          -0.5110099911689758 -0.6175130009651184 -0.5979520082473755 -0.17928999662399292 0.3768270015716553 -0.9087669849395752
          0.028606999665498734 0.4409880042076111 -0.8970569968223572 0.057999998331069946 0.6295920014381409 -0.774757981300354
          0.460207998752594 0.8688120245933533 -0.1826850026845932 0.23386600613594055 0.11245200037956238 0.9657440185546875
          -0.005067999940365553 0.3595210015773773 -0.933122992515564 -0.19199499487876892 -0.669035017490387 0.7180039882659912
          -0.466962993144989 -0.6911280155181885 -0.5516219735145569 -0.10168299823999405 0.34209099411964417 -0.9341490268707275
          -0.07351399958133698 0.2880899906158447 -0.9547770023345947 0.39726099371910095 0.7236509919166565 -0.5643690228462219
          0.025049999356269836 0.15273700654506683 -0.987949013710022 0.2886579930782318 0.425135999917984 0.8578670024871826
          0.0220320001244545 0.23733599483966827 -0.9711779952049255 -0.23673999309539795 -0.6444600224494934 0.7270659804344177
          -0.17004700005054474 -0.14072200655937195 -0.9753360152244568 0.4400469958782196 0.7088220119476318 -0.551298975944519
          0.22279299795627594 0.17924100160598755 -0.9582459926605225 0.19412200152873993 0.10869099944829941 -0.9749370217323303
          0.20588800311088562 0.5994560122489929 0.7734749913215637 -0.06250900030136108 -0.2622779905796051 -0.9629660248756409
          -0.37773001194000244 -0.4765389859676361 0.7938709855079651 0.3964099884033203 0.28808701038360596 -0.8717020153999329
          0.4839189946651459 0.6740729808807373 -0.558076024055481 0.3461669981479645 0.12935799360275269 -0.9292119741439819
          -0.1830500066280365 -0.8271970152854919 -0.5312610268592834 0.0497560016810894 0.6314319968223572 0.7738329768180847
          -0.4780139923095703 -0.5844849944114685 0.6556519865989685 0.45970699191093445 0.26467499136924744 -0.8477129936218262
          0.4412020146846771 0.13756899535655975 -0.88680100440979 0.5102139711380005 0.7030569911003113 -0.495371013879776
          -0.10585200041532516 -0.8206560015678406 -0.5615320205688477 -0.5240870118141174 -0.5662040114402771 0.6361960172653198
          -0.10704100131988525 0.5904200077056885 0.7999669909477234 0.5758439898490906 0.25320199131965637 -0.7773619890213013
          0.5638219714164734 0.21672099828720093 -0.7969549894332886 0.08814799785614014 -0.7798429727554321 -0.619737982749939
          0.5536410212516785 0.6959440112113953 -0.45732301473617554 -0.596015989780426 -0.5883849859237671 0.5464140176773071
          -0.25947099924087524 0.6669189929962158 0.698494017124176 0.7212700247764587 0.2724989950656891 -0.6367989778518677
          0.7103509902954102 0.23048000037670135 -0.6650410294532776 0.27245599031448364 -0.7084149718284607 -0.6510879993438721
          -0.630279004573822 -0.6904870271682739 0.3549309968948364 0.5534939765930176 0.7820370197296143 -0.28646498918533325
          -0.425711989402771 0.5582749843597412 0.7121080160140991 0.8476830124855042 0.20190399885177612 -0.4905799925327301
          0.7541419863700867 0.5934119820594788 -0.2813049852848053 0.3267750144004822 -0.6848559975624084 -0.651298999786377
          -0.6935759782791138 -0.7075589895248413 0.1353210061788559 -0.6932550072669983 0.12044700235128403 0.7105559706687927
          0.6583170294761658 0.7471129894256592 -0.0918779969215393 0.3351689875125885 -0.6517000198364258 -0.680404007434845
          0.9698129892349243 0.1115809977054596 -0.2168239951133728 0.8742780089378357 0.47809699177742004 0.08403000235557556
          -0.803941011428833 -0.565796971321106 -0.18317599594593048 -0.8365240097045898 0.2916390001773834 0.46386998891830444
          0.694625973701477 0.6736570000648499 0.25235000252723694 -0.732695996761322 -0.5502449870109558 -0.4004819989204407
          0.5449249744415283 -0.6769459843635559 -0.4947740137577057 0.9987580180168152 -0.042114000767469406 0.02662700042128563
          0.8518700003623962 0.4319399893283844 0.29621899127960205 -0.9963740110397339 0.08496200293302536 0.004517999943345785
          0.06177299842238426 0.8602880239486694 0.5060520172119141 -0.9908699989318848 -0.058726001530885696 -0.12135499715805054
          -0.47975000739097595 -0.7521809935569763 -0.4517349898815155 0.6272569894790649 -0.7272509932518005 -0.27866798639297485
          0.9673500061035156 -0.2118159979581833 0.139165997505188 0.7907159924507141 0.4271070063114166 0.43857499957084656
          -0.3099370002746582 0.8711680173873901 0.3807950019836426 -0.8971289992332458 -0.11638899892568588 -0.4261600077152252
          -0.22589200735092163 -0.8405849933624268 -0.49233001470565796 0.44151899218559265 -0.8946520090103149 -0.06825699657201767
          0.8208510279655457 -0.33873599767684937 0.45984798669815063 0.6797509789466858 0.4505929946899414 0.5787100195884705
          -0.09104099869728088 0.9941279888153076 0.058483000844717026 -0.524806022644043 -0.05173899978399277 -0.8496479988098145
          0.17894600331783295 -0.7736889719963074 -0.6077700257301331 0.8787170052528381 0.11116000264883041 0.46421998739242554
          0.5528209805488586 0.4779210090637207 0.6826279759407043 0.3887670040130615 0.7172080278396606 -0.5783360004425049
          0.5612339973449707 -0.562745988368988 0.6069049835205078 0.960660994052887 0.1802770048379898 0.21125799417495728
          0.5932649970054626 0.17476999759674072 0.7858070135116577 0.5954030156135559 -0.6746519804000854 -0.4362800121307373
          0.3178960084915161 -0.4696449935436249 0.823635995388031 0.5156109929084778 0.5468239784240723 -0.6596440076828003
          0.2017900049686432 0.8883919715881348 -0.4123600125312805 0.4044570028781891 0.872439980506897 -0.27434200048446655
          0.5213649868965149 0.3338310122489929 0.7853249907493591 -0.4730460047721863 -0.8692780137062073 0.14346900582313538
          -0.38408100605010986 0.13197200000286102 -0.9138190150260925 0.2850539982318878 -0.30818700790405273 0.9076150059700012
          -0.29076701402664185 0.6223099827766418 -0.7267630100250244 -0.08838199824094772 0.4691210091114044 -0.8787000179290771
          -0.4178670048713684 0.022224999964237213 -0.9082369804382324 -0.591625988483429 0.1359120011329651 -0.7946739792823792
          0.37592101097106934 0.8657069802284241 -0.3305079936981201 -0.06747599691152573 0.2618899941444397 -0.9627360105514526
          0.38690200448036194 0.3968049883842468 0.8323779702186584 -0.5297409892082214 -0.8444219827651978 0.07953300327062607
          0.09731999784708023 -0.2924819886684418 0.9513059854507446 -0.2309899926185608 -0.012341000139713287 -0.9728779792785645
          -0.4797860085964203 -0.8564479947090149 -0.19053399562835693 0.0489640012383461 0.23387199640274048 -0.9710339903831482
          0.38996198773384094 0.8142719864845276 -0.4299890100955963 -0.053638000041246414 0.013028999790549278 -0.9984750151634216
          0.2946060001850128 0.49944400787353516 0.8147169947624207 -0.13535000383853912 -0.4914169907569885 0.8603429794311523
          -0.33404800295829773 -0.7395709753036499 -0.5843340158462524 0.03246799856424332 -0.0218299999833107 -0.9992340207099915
          0.04055599868297577 -0.045278001576662064 -0.9981510043144226 0.4250659942626953 0.6457329988479614 -0.6343089938163757
          -0.2707560062408447 -0.7022749781608582 -0.658407986164093 0.11086100339889526 0.37369000911712646 0.9209049940109253
          -0.30429399013519287 -0.6644229888916016 0.6826030015945435 0.058740001171827316 -0.16492299735546112 -0.9845560193061829
          -0.35273298621177673 -0.9357119798660278 -0.004838000051677227 0.12962600588798523 -0.04316199943423271 -0.9906229972839355
          0.4263550043106079 0.8248900175094604 -0.37118399143218994 -0.18104800581932068 -0.25412699580192566 0.9500740170478821
          -0.012467999942600727 0.27956700325012207 0.9600449800491333 0.13535000383853912 -0.2528110146522522 -0.9580010175704956
          -0.489001989364624 -0.8420619964599609 0.22761499881744385 -0.12326599657535553 0.13608799874782562 0.9829980134963989
          0.24294599890708923 -0.009352000430226326 -0.9699950218200684 0.3677169978618622 0.9203760027885437 0.13301299512386322
          -0.09032700210809708 0.2941780090332031 0.9514729976654053 0.28855299949645996 -0.39889800548553467 -0.8704119920730591
          -0.36690598726272583 -0.8272370100021362 0.4255099892616272 -0.2165990024805069 0.3005009889602661 0.9288619756698608
          -0.31485000252723694 0.19325800240039825 0.9292579889297485 0.4561460018157959 0.3116770088672638 -0.8335390090942383
          0.14606499671936035 0.9219639897346497 0.3586750030517578 -0.3543950021266937 -0.9240999817848206 0.14298099279403687
          0.4901590049266815 -0.2761420011520386 -0.8267350196838379 -0.45368799567222595 0.17322899401187897 0.8741620182991028
          -0.4137980043888092 0.3645409941673279 0.8341950178146362 0.04720599949359894 0.9469090104103088 0.318015992641449
          0.5700290203094482 0.4736210107803345 -0.6713799834251404 -0.667680025100708 -0.0926320031285286 0.7386630177497864
          -0.11071900278329849 -0.9783560037612915 -0.1748179942369461 0.6915389895439148 -0.18529899418354034 -0.6981679797172546
          -0.6251630187034607 0.2730819880962372 0.7311609983444214 -0.10075300186872482 0.9078310132026672 0.40705299377441406
          0.6857680082321167 0.5424529910087585 -0.48524999618530273 -0.8345479965209961 -0.36803099513053894 0.4099780023097992
          -0.8579699993133545 0.12050099670886993 0.49936699867248535 0.11062999814748764 -0.9133579730987549 -0.39183899760246277
          0.8960660099983215 -0.03164000064134598 -0.4427909851074219 -0.5058670043945312 0.7108960151672363 0.48859500885009766
          0.6340659856796265 0.7728109955787659 -0.026878999546170235 -0.8249670267105103 -0.5593960285186768 -0.08065900206565857
          -0.9845190048217773 0.07190699875354767 0.15985000133514404 -0.5361289978027344 0.7741879820823669 0.33644899725914
          0.34191399812698364 -0.8265690207481384 -0.44707900285720825 0.9776819944381714 -0.13638299703598022 -0.1598059982061386
          0.5945519804954529 0.7682589888572693 0.23724700510501862 -0.5047569870948792 -0.7845010161399841 -0.36024799942970276
          -0.997530996799469 0.03128200024366379 -0.06288199871778488 -0.2688649892807007 0.9198020100593567 0.28578799962997437
          0.6852779984474182 0.6565700173377991 0.31513500213623047 0.41748300194740295 -0.8516349792480469 -0.31690099835395813
          0.942736029624939 -0.33211401104927063 0.030803000554442406 -0.13877399265766144 -0.9070889949798584 -0.3974049985408783
          -0.7828609943389893 -0.4695279896259308 -0.408255010843277 -0.4767940044403076 0.8509259819984436 -0.2204360067844391
          0.6550220251083374 0.636318027973175 0.40748700499534607 0.8849920034408569 -0.21236799657344818 0.41435301303863525
          0.11545799672603607 -0.9739260077476501 -0.19528800249099731 -0.33910998702049255 -0.8315119743347168 -0.4399909973144531
          -0.5714660286903381 -0.25293800234794617 -0.780672013759613 0.7663170099258423 0.5365539789199829 0.3533659875392914
          0.14499500393867493 0.5747789740562439 -0.8053609728813171 0.3025430142879486 -0.896888017654419 -0.32258298993110657
          0.39438000321388245 0.9189320206642151 0.005413999781012535 0.6954159736633301 0.14489200711250305 0.7038480043411255
          0.7815449833869934 0.5032449960708618 -0.36868900060653687 -0.4357999861240387 0.5313659906387329 -0.7264490127563477
          -0.0246140006929636 0.45056799054145813 -0.8924030065536499 0.3496350049972534 0.9326850175857544 0.08862599730491638
          0.5255470275878906 0.13108299672603607 0.8406059741973877 0.25884199142456055 -0.5313299894332886 0.8066530227661133
          0.38137000799179077 -0.534171998500824 0.7544649839401245 0.8999689817428589 0.014543999917805195 0.43571001291275024
          0.7592830061912537 -0.5121189951896667 -0.40152600407600403 -0.35152700543403625 0.4085400104522705 -0.8423320055007935
          -0.2565700113773346 0.07849200069904327 -0.963333010673523 -0.7121559977531433 -0.03436499834060669 -0.7011799812316895
          0.3342449963092804 0.9401530027389526 0.06627199798822403 0.35062700510025024 0.12891100347042084 0.9276009798049927
          0.14537200331687927 -0.36072298884391785 0.9212740063667297 -0.3607499897480011 -0.9320489764213562 0.03382699936628342
          -0.43071499466896057 -0.8966090083122253 -0.10284800082445145 -0.5370720028877258 -0.8415799736976624 -0.057420000433921814
          -0.4735330045223236 -0.5877739787101746 -0.6559630036354065 -0.5618529915809631 -0.06610500067472458 -0.8245919942855835
          -0.1816830039024353 0.32899999618530273 -0.926688015460968 0.21463799476623535 0.11411900073289871 0.9700040221214294
          0.35078200697898865 0.9322270154953003 0.08890700340270996 -0.012338000349700451 -0.3586370050907135 0.9333950281143188
          -0.3724119961261749 -0.9272609949111938 -0.03869299963116646 -0.3908909857273102 -0.20510199666023254 -0.8972949981689453
          -0.25387701392173767 -0.29536300897598267 -0.9210360050201416 0.029651999473571777 0.40898600220680237 -0.9120590090751648
          0.07294899970293045 0.11074600368738174 0.9911680221557617 -0.1430169939994812 -0.37180501222610474 0.9172279834747314
          0.36412501335144043 0.9220929741859436 0.13098900020122528 -0.3603779971599579 -0.9216219782829285 -0.14401699602603912
          -0.13961400091648102 -0.287975013256073 -0.947405993938446 0.18318000435829163 0.4268999993801117 -0.8855519890785217
          -0.3145599961280823 -0.4637399911880493 0.8282489776611328 -0.013933000154793262 0.32587099075317383 0.9453120231628418
          -0.2756749987602234 -0.9347259998321533 -0.22425700724124908 0.36142998933792114 0.9323239922523499 -0.011814000084996223
          0.0724949985742569 -0.20335300266742706 -0.9764180183410645 0.24960200488567352 0.3611379861831665 -0.8984860181808472
          -0.4090220034122467 -0.5514839887619019 0.7270259857177734 -0.22903600335121155 -0.9163820147514343 -0.32830700278282166
          -0.09756200015544891 0.3676939904689789 0.9248149991035461 0.23802399635314941 -0.17697200179100037 -0.9549999833106995
          0.3521929979324341 0.9359220266342163 -0.0030759999062865973 0.3869810104370117 0.4218739867210388 -0.819920003414154
          -0.4364910125732422 -0.6323930025100708 0.6399649977684021 -0.1645990014076233 -0.9177629947662354 -0.361411988735199
          0.3112959861755371 -0.2081580013036728 -0.9272350072860718 -0.2243569940328598 0.42124098539352417 0.8787599802017212
          0.5135480165481567 0.5218459963798523 -0.6811349987983704 0.29180899262428284 0.9524359703063965 0.08782300353050232
          -0.6098350286483765 -0.44484299421310425 0.6559079885482788 0.1110519990324974 -0.8895159959793091 -0.44320300221443176
          0.46399399638175964 -0.22878099977970123 -0.8557860255241394 0.5730379819869995 0.5475370287895203 -0.6097790002822876
          -0.46397098898887634 0.4167400002479553 0.7817019820213318 0.0940760001540184 0.9437779784202576 0.3169099986553192
          -0.7919139862060547 -0.11014699935913086 0.600616991519928 0.07656700164079666 -0.9383479952812195 -0.33710598945617676
          0.7012379765510559 -0.20868200063705444 -0.6817020177841187 0.6730430126190186 0.623088002204895 -0.39846599102020264
          -0.1745849996805191 0.8846340179443359 0.4323689937591553 -0.682964026927948 0.21121999621391296 0.6992470026016235
          -0.8904119729995728 -0.4373619854450226 0.12601999938488007 0.08051499724388123 -0.9301990270614624 -0.358117014169693
          0.9020599722862244 -0.18489700555801392 -0.3900020122528076 0.9110109806060791 0.35231098532676697 -0.21432800590991974
          -0.06988699734210968 0.9320240020751953 0.3555940091609955 -0.8677480220794678 0.23094600439071655 0.4400880038738251
          -0.9181470274925232 -0.3662799894809723 -0.15114499628543854 -0.04642200097441673 -0.9006569981575012 -0.43204399943351746
          0.9461089968681335 -0.2918260097503662 -0.14041000604629517 0.9934290051460266 0.11422699689865112 0.007162000052630901
          0.3546620011329651 0.8859230279922485 0.29892298579216003 -0.8880050182342529 0.4109390079975128 0.2063400000333786
          -0.223798006772995 -0.9327300190925598 -0.2827180027961731 -0.9218689799308777 -0.28443700075149536 -0.2631610035896301
          0.8683429956436157 -0.49474701285362244 0.034735001623630524 0.9686790108680725 0.13990099728107452 0.20515599846839905
          0.4110029935836792 0.885013997554779 0.21869200468063354 -0.857243001461029 0.5149120092391968 0.0001449999981559813
          0.6529179811477661 -0.5394859910011292 0.5316510200500488 -0.46744099259376526 -0.8519669771194458 -0.23590399324893951
          -0.8667169809341431 -0.22307699918746948 -0.4461359977722168 0.8472989797592163 0.27272799611091614 0.45574599504470825
          0.4523000121116638 0.8814200162887573 0.13610300421714783 -0.7343930006027222 0.6344180107116699 -0.24120700359344482
          0.7902640104293823 0.25994300842285156 -0.5548989772796631 0.9104700088500977 -0.3455269932746887 0.2272759974002838
          -0.07827399671077728 -0.8558070063591003 -0.511339008808136 -0.3868969976902008 0.4258979856967926 -0.8178769946098328
          -0.2905150055885315 -0.41648200154304504 -0.8614770174026489 0.5932350158691406 0.8021759986877441 -0.06771700084209442
          -0.7621219754219055 0.004681999795138836 -0.6474159955978394 -0.1687069982290268 0.44252198934555054 -0.880744993686676
          -0.34502801299095154 0.14502300322055817 -0.9273210167884827 -0.24951200187206268 0.8334450125694275 -0.4930649995803833
          -0.3497549891471863 -0.9267929792404175 0.13684499263763428 -0.46131300926208496 -0.8862029910087585 0.04281900078058243
          -0.5565260052680969 -0.04888499900698662 -0.8293910026550293 0.9592540264129639 -0.05096200108528137 -0.2779110074043274
          0.7252659797668457 0.6308910250663757 -0.27561700344085693 0.47741299867630005 -0.8230860233306885 -0.30758100748062134
          -0.32471901178359985 0.5166040062904358 -0.792261004447937 0.6252840161323547 0.6656550168991089 0.4073359966278076
          0.3599730134010315 -0.1802850067615509 0.9153779745101929 0.5035020112991333 -0.2192869931459427 0.8357030153274536
          -0.36606499552726746 -0.930312991142273 0.02267399989068508 0.5827460289001465 -0.42798399925231934 0.6908230185508728
          -0.439067006111145 -0.0602089986205101 -0.896435022354126 0.693801999092102 0.25321099162101746 0.6741830110549927
          0.9002100229263306 0.35428300499916077 0.2531929910182953 0.23503200709819794 0.9719750285148621 0.004970000125467777
          -0.24306200444698334 0.5001919865608215 -0.8311010003089905 0.15567800402641296 -0.25266799330711365 0.9549469947814941
          0.390720009803772 0.4144729971885681 0.8219180107116699 0.47224900126457214 0.3962379992008209 0.7873860001564026
          0.54339599609375 0.3543800115585327 0.7610099911689758 -0.47437500953674316 -0.8650519847869873 -0.16326099634170532
          -0.3236759901046753 -0.07308399677276611 -0.9433410167694092 0.30309000611305237 0.9506549835205078 0.0662660002708435
          -0.03411699831485748 0.5210000276565552 -0.8528749942779541 -0.10990499705076218 -0.39272400736808777 0.9130650162696838
          0.2887730002403259 0.47510799765586853 0.8311929702758789 0.43196600675582886 0.8960239887237549 -0.10269799828529358
          0.3790160119533539 0.9253870248794556 -0.0025339999701827765 -0.44503799080848694 -0.8548039793968201 -0.2669300138950348
          -0.11678899824619293 -0.10931199789047241 -0.9871230125427246 0.14082899689674377 0.4212940037250519 -0.8959230184555054
          -0.2874850034713745 -0.3794659972190857 0.8794080018997192 0.08760000020265579 0.46317198872566223 0.8819289803504944
          0.4211980104446411 0.9043269753456116 0.06917300075292587 0.3110249936580658 0.40600600838661194 -0.8593149781227112
          -0.38398998975753784 -0.899728000164032 -0.20746499300003052 0.08123800158500671 -0.13785099983215332 -0.9871159791946411
          -0.40032100677490234 -0.27476799488067627 0.8742110133171082 -0.08821000158786774 0.4785889983177185 0.8735970258712769
          0.2825540006160736 0.9242609739303589 0.2567189931869507 0.4324289858341217 0.4622879922389984 -0.7741410136222839
          0.21838800609111786 -0.2236739993095398 -0.9498819708824158 -0.3199160099029541 -0.9371950030326843 -0.1389939934015274
          -0.2611899971961975 0.4680280089378357 0.844232976436615 -0.48421400785446167 -0.1868389993906021 0.8547679781913757
          0.150736004114151 0.9199659824371338 0.3618580102920532 0.5069320201873779 0.6091539859771729 -0.6098769903182983
          0.3225710093975067 -0.3296639919281006 -0.8872820138931274 -0.29193100333213806 -0.9514489769935608 -0.09757299721240997
          0.1669670045375824 0.9441559910774231 0.2840610146522522 -0.3823390007019043 0.44251900911331177 0.8111680150032043
          -0.6055729985237122 -0.16037499904632568 0.7794619798660278 0.6062840223312378 0.5108199715614319 -0.6094939708709717
          0.43560200929641724 -0.35559898614883423 -0.8269219994544983 -0.2825559973716736 -0.9517470002174377 -0.1197500005364418
          0.6793860197067261 0.5044059753417969 -0.532925009727478 0.045990001410245895 0.9524250030517578 0.30128300189971924
          -0.5246800184249878 0.4840739965438843 0.7002739906311035 -0.7352359890937805 -0.28649699687957764 0.6142870187759399
          0.6068180203437805 -0.30108699202537537 -0.7356070280075073 -0.18351800739765167 -0.9612330198287964 -0.20579899847507477
          0.9226850271224976 0.10429500043392181 -0.37118101119995117 0.792972981929779 -0.385668009519577 -0.47165000438690186
          0.34662899374961853 0.9296690225601196 0.12475600093603134 -0.6915799975395203 0.4952859878540039 0.5257449746131897
          -0.905896008014679 -0.2743220031261444 0.32264599204063416 -0.09365999698638916 -0.9281759858131409 -0.36016398668289185
          0.9927340149879456 -0.04747600108385086 -0.1105630025267601 0.8206089735031128 -0.5141500234603882 -0.2495020031929016
          0.36363300681114197 -0.8425139784812927 -0.3974190056324005 0.5336869955062866 0.8012599945068359 0.27048298716545105
          -0.7821800112724304 0.5626239776611328 0.26767200231552124 -0.9587439894676208 -0.273730993270874 -0.07668399810791016
          0.9861770272254944 -0.0707160010933876 0.14984600245952606 0.8599230051040649 -0.4988099932670593 0.10825899988412857
          0.1384730041027069 -0.9378799796104431 -0.3181299865245819 -0.7046930193901062 -0.5503460168838501 -0.44780200719833374
          0.21498699486255646 0.9169210195541382 0.3362079858779907 -0.8936600089073181 0.4482879936695099 -0.02024799957871437
          0.8855640292167664 -0.11475799977779388 0.4501180052757263 0.41962701082229614 0.8058519959449768 0.4177510142326355
          0.11134900152683258 -0.9929199814796448 0.041363999247550964 -0.699167013168335 -0.5762100219726562 -0.4232580065727234
          -0.9075480103492737 0.1979379951953888 -0.37037599086761475 0.9178739786148071 -0.3732309937477112 -0.13493099808692932
          0.9222549796104431 0.37174201011657715 -0.10608100146055222 -0.3381989896297455 0.7766839861869812 -0.5313969850540161
          0.2266020029783249 -0.8594350218772888 -0.458283007144928 -0.5188949704170227 -0.16646799445152283 -0.8384720087051392
          -0.2886959910392761 0.7825319766998291 0.5516330003738403 -0.531059980392456 0.14582200348377228 0.8346920013427734
          -0.13561800122261047 0.7948359847068787 0.5914760231971741 0.6338800191879272 0.7079300284385681 -0.3114979863166809
          -0.37274301052093506 0.8353850245475769 0.4039739966392517 -0.6636729836463928 0.25810301303863525 0.7020829916000366
          0.6238160133361816 0.7782080173492432 -0.07242699712514877 -0.6186599731445312 -0.26617300510406494 0.7391970157623291
          -0.515129029750824 -0.34098300337791443 0.7863669991493225 -0.4152109920978546 0.12069299817085266 0.90168297290802
          0.5786659717559814 0.6645089983940125 -0.4728359878063202 0.04558299854397774 0.8504809737205505 0.5240280032157898
          0.8186609745025635 -0.29742398858070374 -0.4912559986114502 0.6631119847297668 -0.22927699983119965 -0.7125409841537476
          -0.8291109800338745 0.2237430065870285 0.5123609900474548 0.5766639709472656 0.7953760027885437 0.18664200603961945