<?xml version="1.0"?>
<VTKFile type="PolyData" version="0.1" byte_order="LittleEndian" header_type="UInt32" compressor="vtkZLibDataCompressor">
  <PolyData>
    <Piece NumberOfPoints="125" NumberOfVerts="0" NumberOfLines="0" NumberOfStrips="0" NumberOfPolys="246">
      <PointData Normals="Normals">
        <DataArray type="Float32" Name="Normals" NumberOfComponents="3" format="ascii" RangeMin="0.9999993485150169" RangeMax="1.000000633820874">
          -0.12721699476242065 -0.8932070136070251 0.4312739968299866 -0.06278499960899353 -0.9862319827079773 -0.15298399329185486
          -0.008604999631643295 -0.8490800261497498 0.528194010257721 -0.16369399428367615 -0.8934379816055298 0.41829800605773926
          -0.17399699985980988 -0.9844430088996887 0.024438999593257904 -0.20611600577831268 -0.6962400078773499 0.6875799894332886
          -0.08983799815177917 -0.4338969886302948 0.8964719772338867 -0.47030699253082275 -0.3983609974384308 0.7874770164489746
          0.0980369970202446 -0.9766430258750916 0.19119900465011597 0.47607100009918213 -0.8482180237770081 -0.23212799429893494
          -0.21472999453544617 -0.8355979919433594 -0.5056350231170654 -0.1528709977865219 -0.8219670057296753 -0.5486350059509277
          0.2979680001735687 -0.7484570145606995 -0.5924760103225708 -0.1040090024471283 -0.8469589948654175 -0.5213860273361206
          0.3468509912490845 -0.17993099987506866 0.9204999804496765 0.8036249876022339 -0.013910000212490559 0.5949739813804626
          0.009120999835431576 -0.9012960195541382 0.43310800194740295 0.07180099934339523 -0.6005079746246338 0.7963879704475403
          -0.08093000203371048 -0.9934970140457153 -0.08008799701929092 -0.22729499638080597 -0.9498339891433716 -0.21483300626277924
          0.2213899940252304 0.2734380066394806 0.9360650181770325 -0.08228500187397003 0.04707400128245354 0.9954969882965088
          -0.6445519924163818 -0.2584820091724396 0.7195410132408142 -0.994903028011322 0.04772999882698059 0.08882199972867966
          0.26930099725723267 0.39508700370788574 0.8782839775085449 -0.050988998264074326 0.5529239773750305 0.8316699862480164
          -0.4172140061855316 0.8117390275001526 0.4086720049381256 0.8718209862709045 -0.4897879958152771 -0.0059529999271035194
          0.7919800281524658 -0.23530499637126923 -0.5633820295333862 0.8744639754295349 0.4552989900112152 -0.1673779934644699
          -0.2576110064983368 -0.8173140287399292 -0.5153980255126953 0.2698580026626587 -0.03795799985527992 -0.9621520042419434
          -0.31692200899124146 -0.7575809955596924 -0.5706409811973572 -0.10995300114154816 -0.10192199796438217 -0.9886969923973083
          -0.2628830075263977 -0.48005300760269165 -0.8369240164756775 -0.10940200090408325 -0.6208599805831909 -0.7762500047683716
          0.3732979893684387 0.08302100002765656 -0.9239889979362488 0.5465949773788452 0.6119449734687805 -0.5716260075569153
          0.5210480093955994 0.7799779772758484 0.3466170132160187 0.4293220043182373 0.8954139947891235 -0.11796700209379196
          0.29496899247169495 -0.5864350199699402 0.7543789744377136 0.30406901240348816 -0.8303080201148987 0.46704500913619995
          0.07104700058698654 -0.9862139821052551 0.1494469940662384 0.5651299953460693 0.07016400247812271 0.8220130205154419
          -0.00967399962246418 -0.7923669815063477 -0.6099680066108704 -0.07183100283145905 -0.9922410249710083 -0.10147900134325027
          -0.035597000271081924 -0.9313820004463196 -0.36229801177978516 0.021890999749302864 -0.9923380017280579 0.12159500271081924
          -0.13628600537776947 0.981777012348175 0.1324390023946762 -0.26512399315834045 0.9641159772872925 -0.013795999810099602
          0.12592600286006927 0.9490100145339966 0.289002001285553 0.36682599782943726 0.8521689772605896 0.37315699458122253
          0.5443909764289856 0.7395809888839722 0.39580100774765015 -0.7295780181884766 -0.503462016582489 -0.4628629982471466
          -0.021933000534772873 -0.2675679922103882 -0.9632890224456787 0.3578279912471771 0.7257260084152222 -0.5876060128211975
          0.17907199263572693 0.9815549850463867 -0.06695300340652466 -0.07383999973535538 0.8353559970855713 -0.5447279810905457
          -0.5790449976921082 0.6517040133476257 -0.48988598585128784 -0.09944699704647064 0.63857102394104 -0.7631099820137024
          -0.019677000120282173 0.23121300339698792 -0.9727039933204651 0.17620299756526947 -0.29034900665283203 -0.9405580163002014
          0.6440160274505615 -0.235725998878479 0.7277889847755432 -0.07567299902439117 -0.8997949957847595 0.4297010004520416
          0.20260900259017944 -0.3960059881210327 0.8956170082092285 -0.2637549936771393 -0.5400620102882385 0.7992290258407593
          0.7443299889564514 0.20225399732589722 0.6364480257034302 0.6856889724731445 0.5312730073928833 0.49757298827171326
          0.23386399447917938 -0.48107901215553284 -0.8449079990386963 0.1840589940547943 -0.7161639928817749 -0.6732249855995178
          -0.8663079738616943 -0.18091000616550446 -0.465599000453949 -0.9324340224266052 -0.25304898619651794 -0.25793999433517456
          -0.9673600196838379 0.10730399936437607 0.22956499457359314 -0.47847801446914673 -0.7993119955062866 0.3635370135307312
          0.11420600116252899 0.9870030283927917 -0.11306100338697433 0.44220098853111267 0.8681380152702332 -0.22537599503993988
          0.5735219717025757 0.8149049878120422 -0.08368299901485443 0.46256300806999207 0.8738470077514648 0.14975400269031525
          -0.18915599584579468 -0.36890798807144165 -0.9100149869918823 -0.3001079857349396 0.9498819708824158 -0.08751299977302551
          -0.40277600288391113 0.49612799286842346 -0.7691739797592163 0.08985599875450134 0.46331000328063965 -0.8816289901733398
          -0.2101770043373108 0.9756439924240112 -0.06280600279569626 0.304284006357193 0.7092679738998413 -0.635886013507843
          0.5343289971351624 0.4217579960823059 -0.7325389981269836 0.4020490050315857 -0.22139599919319153 -0.8884479999542236
          0.5632680058479309 0.14113999903202057 0.8141310214996338 0.744359016418457 0.4322589933872223 0.5090000033378601
          -0.5498769879341125 -0.5207769870758057 0.6530140042304993 -0.03499399870634079 0.27953100204467773 0.9594990015029907
          -0.6875079870223999 0.03391699865460396 0.725383996963501 -0.8567839860916138 0.057691000401973724 0.5124379992485046
          0.15661700069904327 -0.16421499848365784 -0.9739120006561279 -0.5525259971618652 -0.3899630010128021 -0.7366440296173096
          -0.7065560221672058 0.7013689875602722 -0.09413500130176544 -0.9733719825744629 0.22922000288963318 -0.0023219999857246876
          -0.8029940128326416 0.5959870219230652 -0.00031599999056197703 -0.9694309830665588 0.2368679940700531 -0.06401299685239792
          -0.859453022480011 0.49365198612213135 0.13284499943256378 0.502174973487854 0.7635729908943176 -0.40592700242996216
          0.43023601174354553 0.895982027053833 -0.11006399989128113 -0.5948179960250854 0.8038550019264221 -0.0030739998910576105
          -0.054802000522613525 0.9701679944992065 0.23615799844264984 0.45119398832321167 0.8424460291862488 0.29446399211883545
          0.33159199357032776 0.3989039957523346 -0.8549399971961975 0.5054669976234436 0.6400660276412964 0.5786349773406982
          0.11898999661207199 0.6977980136871338 0.7063419818878174 -0.6394420266151428 0.34927499294281006 0.6849240064620972
          -0.9920510053634644 0.07922700047492981 0.09776099771261215 -0.7833880186080933 0.44178900122642517 -0.43717899918556213
          -0.7473120093345642 0.04718500003218651 -0.6627960205078125 -0.16527999937534332 0.4528310000896454 -0.8761429786682129
          -0.8293190002441406 0.5563880205154419 0.05160899832844734 -0.9333620071411133 0.35374000668525696 -0.06086000055074692
          -0.9796440005302429 0.19860300421714783 -0.029234999790787697 -0.9793109893798828 -0.19537800550460815 -0.05269800126552582
          -0.9995369911193848 0.01756500080227852 -0.024829000234603882 -0.9540590047836304 0.29638999700546265 0.043855998665094376
          0.18090300261974335 0.8612779974937439 -0.474839985370636 -0.14555400609970093 0.9524570107460022 -0.26765701174736023
          -0.9599440097808838 0.28019100427627563 0.0006689999718219042 0.17893600463867188 0.8627309799194336 0.4729439914226532
          -0.5851539969444275 0.6418370008468628 0.4956200122833252 -0.9563869833946228 0.28977400064468384 0.03682199865579605
          -0.32978901267051697 0.8515200018882751 -0.40761798620224
          <InformationKey name="L2_NORM_RANGE" location="vtkDataArray" length="2">
            <Value index="0">
              0.99999934852
            </Value>
            <Value index="1">
              1.0000006338
            </Value>
          </InformationKey>
        </DataArray>
      </PointData>
      <CellData>
      </CellData>
      <Points>
        <DataArray type="Float32" Name="Points" NumberOfComponents="3" format="ascii" RangeMin="0.1648246219523273" RangeMax="0.17722211515685807">
          0.060662999749183655 -0.16241799294948578 -0.028044000267982483 0.06262499839067459 -0.1625870019197464 -0.029903000220656395
          0.061751000583171844 -0.1617719978094101 -0.026194000616669655 0.056046999990940094 -0.16127599775791168 -0.027506999671459198
          0.0589740015566349 -0.16244499385356903 -0.02897300012409687 0.06045899912714958 -0.16112400591373444 -0.025728000327944756
          0.05714099854230881 -0.16039900481700897 -0.02638299949467182 0.0577859990298748 -0.1602959930896759 -0.026170000433921814
          0.06333599984645844 -0.16271300613880157 -0.028202999383211136 0.0641850009560585 -0.16252200305461884 -0.029572999104857445
          0.06031699851155281 -0.16181999444961548 -0.03093699924647808 0.059537000954151154 -0.16230100393295288 -0.03005100041627884
          0.06343399733304977 -0.1623309999704361 -0.030820000916719437 0.06242400035262108 -0.16193300485610962 -0.03142999857664108
          0.06215500086545944 -0.16090600192546844 -0.02566399984061718 0.06416299939155579 -0.16199499368667603 -0.027274999767541885
          0.05288900062441826 -0.16014300286769867 -0.025950999930500984 0.05539900064468384 -0.1604440063238144 -0.026590999215841293
          0.048893000930547714 -0.1598220020532608 -0.030861999839544296 0.056644998490810394 -0.1617179960012436 -0.02950499951839447
          0.05940999835729599 -0.1597840040922165 -0.024979999288916588 0.05812299996614456 -0.1594109982252121 -0.024991000071167946
          0.05751200020313263 -0.15932400524616241 -0.025102000683546066 0.057812999933958054 -0.1596670001745224 -0.025376999750733376
          0.05591699853539467 -0.1598310023546219 -0.026272999122738838 0.05692699924111366 -0.15987800061702728 -0.02647699974477291
          0.05772700160741806 -0.1596660017967224 -0.02653999999165535 0.06473000347614288 -0.16233199834823608 -0.028769999742507935
          0.06419400125741959 -0.1622689962387085 -0.03047100082039833 0.06445900350809097 -0.16185200214385986 -0.02921699918806553
          0.05806000158190727 -0.16051000356674194 -0.03138099983334541 0.061524998396635056 -0.16112199425697327 -0.03221900016069412
          0.058681998401880264 -0.16058200597763062 -0.03217700123786926 0.056682001799345016 -0.16043299436569214 -0.03130299970507622
          0.05726400017738342 -0.1605830043554306 -0.03125400096178055 0.05513099953532219 -0.1607310026884079 -0.030866000801324844
          0.06289199739694595 -0.1618189960718155 -0.031599000096321106 0.06327000260353088 -0.16142700612545013 -0.03089199960231781
          0.06266800314188004 -0.16059599816799164 -0.02627200074493885 0.06308399885892868 -0.16072100400924683 -0.028432000428438187
          0.05356600135564804 -0.15991100668907166 -0.025797000154852867 0.05097699910402298 -0.15955600142478943 -0.024430999532341957
          0.050276998430490494 -0.15998099744319916 -0.02536799944937229 0.05335500091314316 -0.15891000628471375 -0.025270000100135803
          0.05091499909758568 -0.15999799966812134 -0.03133099898695946 0.04708800092339516 -0.16008399426937103 -0.03007199987769127
          0.04930099844932556 -0.15964500606060028 -0.03169599920511246 0.04846600070595741 -0.16017000377178192 -0.024385999888181686
          0.058208998292684555 -0.15898899734020233 -0.02539299987256527 0.05816899985074997 -0.15949100255966187 -0.027155999094247818
          0.0570949986577034 -0.1596290022134781 -0.02689399942755699 0.05602499842643738 -0.15925900638103485 -0.027052000164985657
          0.055073998868465424 -0.158827006816864 -0.02672000043094158 0.057659998536109924 -0.16012699902057648 -0.031996000558137894
          0.059431999921798706 -0.16033299267292023 -0.03256300091743469 0.05952399969100952 -0.1597999930381775 -0.03235600143671036
          0.059866998344659805 -0.15968500077724457 -0.029121000319719315 0.056908998638391495 -0.1598850041627884 -0.03099299967288971
          0.05764399841427803 -0.1599379926919937 -0.03135000169277191 0.05628800019621849 -0.16003799438476562 -0.03119800053536892
          0.05564400181174278 -0.16022300720214844 -0.031116999685764313 0.053752001374959946 -0.15965600311756134 -0.0314130000770092
          0.0516199991106987 -0.15827499330043793 -0.023730000481009483 0.04884599894285202 -0.15990999341011047 -0.02338399924337864
          0.04956100136041641 -0.1589210033416748 -0.022314999252557755 0.04913400113582611 -0.15942500531673431 -0.022691000252962112
          0.05289600044488907 -0.1581919938325882 -0.025064000859856606 0.05350600183010101 -0.15799100697040558 -0.02597000077366829
          0.051681999117136 -0.15859100222587585 -0.032356999814510345 0.04999599978327751 -0.15904900431632996 -0.03271599858999252
          0.046943001449108124 -0.1595280021429062 -0.03187299892306328 0.04593300074338913 -0.1598930060863495 -0.030274000018835068
          0.04603800177574158 -0.15986500680446625 -0.02695400081574917 0.04770499840378761 -0.15994399785995483 -0.02437100000679493
          0.057565998286008835 -0.15943999588489532 -0.02893799915909767 0.055723000317811966 -0.15892399847507477 -0.029557999223470688
          0.05391300097107887 -0.157927006483078 -0.03024899959564209 0.05020799860358238 -0.15531599521636963 -0.02660300023853779
          0.05804000049829483 -0.1598999947309494 -0.032620999962091446 0.05809900164604187 -0.15941399335861206 -0.032294999808073044
          0.05720899999141693 -0.15970100462436676 -0.03242599964141846 0.058809999376535416 -0.15982399880886078 -0.032604001462459564
          0.05803700163960457 -0.15973199903964996 -0.0310210008174181 0.05572900176048279 -0.1595579981803894 -0.030858999118208885
          0.05479099974036217 -0.15903900563716888 -0.030995000153779984 0.05153400078415871 -0.15737399458885193 -0.0328029990196228
          0.05052600055932999 -0.15765799582004547 -0.02245599962770939 0.05153999850153923 -0.15706400573253632 -0.023667000234127045
          0.048340000212192535 -0.15964899957180023 -0.02333500050008297 0.04980500042438507 -0.15740300714969635 -0.022221999242901802
          0.048836998641490936 -0.15772099792957306 -0.02255300059914589 0.04799500107765198 -0.1593330055475235 -0.023587999865412712
          0.049125999212265015 -0.15790300071239471 -0.034008000046014786 0.047919001430273056 -0.15886500477790833 -0.03339000046253204
          0.047463998198509216 -0.15842700004577637 -0.028324000537395477 0.048987001180648804 -0.1562660038471222 -0.02974499948322773
          0.04812299832701683 -0.1576160043478012 -0.028291000053286552 0.04818800091743469 -0.1576170027256012 -0.0328500010073185
          0.04828000068664551 -0.1582310050725937 -0.025144999846816063 0.05066100135445595 -0.15548300743103027 -0.03294700011610985
          0.05087599903345108 -0.15528300404548645 -0.032207001000642776 0.048719000071287155 -0.15491299331188202 -0.029205000028014183
          0.04904799908399582 -0.1553869992494583 -0.02482599951326847 0.05037999898195267 -0.1561100035905838 -0.023832999169826508
          0.0503540001809597 -0.15581999719142914 -0.03350700065493584 0.05105099827051163 -0.1568470001220703 -0.023228000849485397
          0.04992299899458885 -0.1563819944858551 -0.023034999147057533 0.048799000680446625 -0.15705400705337524 -0.022718999534845352
          0.048489999026060104 -0.1576099991798401 -0.023933999240398407 0.048399001359939575 -0.15645000338554382 -0.03382699936628342
          0.048266999423503876 -0.1575309932231903 -0.03389900177717209 0.04870200157165527 -0.1559399962425232 -0.03368400037288666
          0.048478998243808746 -0.15708300471305847 -0.02833399921655655 0.048367999494075775 -0.1554969996213913 -0.0322519987821579
          0.04879099875688553 -0.15659099817276 -0.028656000271439552 0.04862099885940552 -0.1559309959411621 -0.028263000771403313
          0.048902999609708786 -0.1563660055398941 -0.027285000309348106 0.04882099851965904 -0.15665499866008759 -0.027883000671863556
          0.05009699985384941 -0.15530699491500854 -0.032947998493909836 0.04930099844932556 -0.15489600598812103 -0.03215700015425682
          0.04838399961590767 -0.15529200434684753 -0.02709599956870079 0.04977500066161156 -0.15590499341487885 -0.023725999519228935
          0.048409998416900635 -0.1560090035200119 -0.023879000917077065 0.04825099930167198 -0.1555429995059967 -0.025508999824523926
          0.04913900047540665 -0.15549300611019135 -0.03339099884033203
          <InformationKey name="L2_NORM_RANGE" location="vtkDataArray" length="2">
            <Value index="0">
              0.16482462195
            </Value>
            <Value index="1">
              0.17722211516
            </Value>
          </InformationKey>
        </DataArray>
      </Points>
      <Verts>
        <DataArray type="Int64" Name="connectivity" format="ascii" RangeMin="1e+299" RangeMax="-1e+299">
        </DataArray>
        <DataArray type="Int64" Name="offsets" format="ascii" RangeMin="1e+299" RangeMax="-1e+299">
        </DataArray>
      </Verts>
      <Lines>
        <DataArray type="Int64" Name="connectivity" format="ascii" RangeMin="1e+299" RangeMax="-1e+299">
        </DataArray>
        <DataArray type="Int64" Name="offsets" format="ascii" RangeMin="1e+299" RangeMax="-1e+299">
        </DataArray>
      </Lines>
      <Strips>
        <DataArray type="Int64" Name="connectivity" format="ascii" RangeMin="1e+299" RangeMax="-1e+299">
        </DataArray>
        <DataArray type="Int64" Name="offsets" format="ascii" RangeMin="1e+299" RangeMax="-1e+299">
        </DataArray>
      </Strips>
      <Polys>
        <DataArray type="Int32" Name="connectivity" format="ascii" RangeMin="0" RangeMax="124">
          0 1 2 3 4 0
          0 2 5 3 0 6
          7 6 0 4 1 0
          7 0 5 2 1 8
          1 9 8 10 1 11
          1 4 11 9 1 12
          10 13 1 13 12 1
          5 2 14 15 2 8
          14 2 15 16 3 17
          18 3 16 6 17 3
          19 4 3 18 19 3
          4 19 11 5 14 20
          21 22 5 22 23 5
          5 20 21 5 23 7
          17 6 24 6 25 24
          25 6 7 7 26 25
          7 23 26 8 27 15
          9 27 8 9 12 28
          9 28 29 27 9 29
          10 11 30 31 13 10
          32 31 10 30 32 10
          33 34 11 19 35 11
          11 35 33 30 11 34
          13 36 12 12 36 37
          12 37 28 31 36 13
          14 38 20 38 14 15
          15 27 29 15 39 38
          29 39 15 17 40 16
          40 41 16 42 16 41
          16 42 18 24 43 17
          40 17 43 44 19 18
          18 45 46 46 44 18
          47 45 18 47 18 42
          35 19 44 20 48 21
          48 20 38 21 48 22
          22 48 23 49 23 48
          26 23 49 25 50 24
          51 24 50 51 52 24
          52 43 24 26 50 25
          26 49 50 37 29 28
          39 29 37 30 53 32
          30 34 53 54 31 32
          36 31 39 31 54 55
          55 56 31 31 56 39
          32 53 54 33 57 58
          33 58 34 57 33 59
          33 35 60 59 33 60
          53 34 58 44 61 35
          61 60 35 39 37 36
          56 38 39 48 38 56
          62 41 40 43 62 40
          47 42 41 63 47 41
          64 65 41 65 63 41
          64 41 62 66 43 67
          62 43 66 67 43 52
          68 61 44 69 68 44
          69 44 46 70 46 45
          45 71 70 71 45 72
          72 45 73 45 47 73
          69 46 70 73 47 63
          48 56 49 74 50 49
          49 56 74 50 75 76
          50 76 51 50 74 75
          76 52 51 77 52 76
          67 52 77 53 78 54
          53 58 79 78 53 80
          80 53 79 81 55 54
          78 81 54 55 79 56
          81 79 55 56 82 74
          56 79 82 74 57 83
          82 58 57 74 82 57
          60 83 57 60 57 59
          58 82 79 61 84 60
          60 84 83 61 85 84
          68 85 61 86 64 62
          87 62 66 86 62 87
          65 88 63 73 63 88
          64 86 89 65 64 90
          90 64 89 91 88 65
          90 91 65 87 66 67
          87 67 77 68 69 85
          92 69 93 70 93 69
          85 69 92 71 94 70
          95 70 96 93 70 97
          95 97 70 70 94 96
          72 94 71 91 72 73
          91 98 72 94 72 96
          72 98 96 91 73 88
          83 75 74 76 75 84
          83 84 75 99 76 84
          76 99 100 76 100 77
          101 77 100 77 101 102
          77 102 103 77 103 87
          78 80 81 80 79 81
          85 104 84 104 99 84
          85 92 104 86 87 105
          105 106 86 89 86 106
          87 103 105 89 106 107
          107 90 89 91 90 108
          90 107 108 108 98 91
          109 92 110 93 110 92
          111 92 109 111 104 92
          110 93 97 95 96 112
          101 113 95 114 95 112
          97 95 113 115 101 95
          95 114 115 96 98 116
          117 96 116 96 117 112
          110 97 109 113 109 97
          116 98 108 99 104 118
          100 99 119 99 118 119
          119 101 100 101 119 113
          120 102 101 101 115 120
          121 103 102 122 121 102
          122 102 123 120 123 102
          105 103 121 124 118 104
          124 104 111 106 105 121
          106 121 122 122 107 106
          122 108 107 123 108 122
          108 123 116 124 111 109
          113 119 109 109 119 124
          117 114 112 114 117 115
          115 116 120 116 115 117
          116 123 120 118 124 119
        </DataArray>
        <DataArray type="Int32" Name="offsets" format="ascii" RangeMin="3" RangeMax="738">
          3 6 9 12 15 18
          21 24 27 30 33 36
          39 42 45 48 51 54
          57 60 63 66 69 72
          75 78 81 84 87 90
          93 96 99 102 105 108
          111 114 117 120 123 126
          129 132 135 138 141 144
          147 150 153 156 159 162
          165 168 171 174 177 180
          183 186 189 192 195 198
          201 204 207 210 213 216
          219 222 225 228 231 234
          237 240 243 246 249 252
          255 258 261 264 267 270
          273 276 279 282 285 288
          291 294 297 300 303 306
          309 312 315 318 321 324
          327 330 333 336 339 342
          345 348 351 354 357 360
          363 366 369 372 375 378
          381 384 387 390 393 396
          399 402 405 408 411 414
          417 420 423 426 429 432
          435 438 441 444 447 450
          453 456 459 462 465 468
          471 474 477 480 483 486
          489 492 495 498 501 504
          507 510 513 516 519 522
          525 528 531 534 537 540
          543 546 549 552 555 558
          561 564 567 570 573 576
          579 582 585 588 591 594
          597 600 603 606 609 612
          615 618 621 624 627 630
          633 636 639 642 645 648
          651 654 657 660 663 666
          669 672 675 678 681 684
          687 690 693 696 699 702
          705 708 711 714 717 720
          723 726 729 732 735 738
        </DataArray>
      </Polys>
    </Piece>
  </PolyData>
</VTKFile>
