<?xml version="1.0"?>
<VTKFile type="PolyData" version="0.1" byte_order="LittleEndian" header_type="UInt32" compressor="vtkZLibDataCompressor">
  <PolyData>
    <Piece NumberOfPoints="1851" NumberOfVerts="0" NumberOfLines="0" NumberOfStrips="0" NumberOfPolys="3698">
      <PointData Normals="Normals">
        <DataArray type="Float32" Name="Normals" NumberOfComponents="3" format="ascii" RangeMin="0.9999992551768536" RangeMax="1.00000077041622">
          0.11546500027179718 -0.046000998467206955 0.9922459721565247 0.23910300433635712 0.14583200216293335 0.9599810242652893
          0.0014659999869763851 0.05265599861741066 0.9986119866371155 -0.09896799921989441 -0.13906599581241608 0.9853249788284302
          0.3658420145511627 0.1261810064315796 0.9220830202102661 -0.1584089994430542 -0.20685499906539917 0.9654620289802551
          -0.14420199394226074 -0.19766199588775635 0.9696059823036194 0.22344699501991272 0.05010399967432022 0.9734280109405518
          0.016766000539064407 -0.13056200742721558 0.9912980198860168 0.054857999086380005 0.22614799439907074 0.9725469946861267
          0.34932398796081543 0.29592499136924744 0.889045000076294 0.15773999691009521 0.31501200795173645 0.9358869791030884
          -0.307218998670578 0.14087599515914917 0.9411540031433105 -0.3097740113735199 -0.038770001381635666 0.9500190019607544
          -0.3656420111656189 -0.22127500176429749 0.9040709733963013 0.4480130076408386 0.27244600653648376 0.8515030145645142
          0.3891119956970215 0.09419599920511246 0.9163619875907898 0.3687340021133423 0.1748410016298294 0.9129440188407898
          0.4363040030002594 0.23747700452804565 0.8678960204124451 -0.4272330105304718 -0.2843790054321289 0.8582550287246704
          -0.38860300183296204 -0.31776899099349976 0.8648759722709656 -0.20216399431228638 -0.22899200022220612 0.9522039890289307
          0.025249000638723373 -0.06260699778795242 0.9977189898490906 0.24800199270248413 0.12984499335289001 0.96001797914505
          0.32047799229621887 0.16458100080490112 0.9328489899635315 -0.08625400066375732 0.28960999846458435 0.953249990940094
          0.5033209919929504 0.3055869936943054 0.8082600235939026 0.4076569974422455 0.3716300129890442 0.834089994430542
          0.35601699352264404 0.4057680070400238 0.8417860269546509 0.23606599867343903 0.3636170029640198 0.9011409878730774
          0.07400199770927429 0.34413400292396545 0.9359999895095825 -0.6329129934310913 0.030781999230384827 0.7736110091209412
          -0.5346029996871948 0.0015480000292882323 0.8451020121574402 -0.5668740272521973 0.09998100250959396 0.8177149891853333
          -0.3186759948730469 0.21423499286174774 0.9233360290527344 -0.5579490065574646 -0.11654199659824371 0.8216519951820374
          -0.6216369867324829 -0.2987619936466217 0.7240920066833496 0.5374529957771301 0.3091149926185608 0.7845969796180725
          0.2575260102748871 0.2413170039653778 0.9356529712677002 0.45634201169013977 0.2849540114402771 0.842943012714386
          0.28070199489593506 0.2830190062522888 0.917119026184082 0.5508530139923096 0.27781400084495544 0.7870069742202759
          0.4162670075893402 0.2940959930419922 0.8603659868240356 0.452006995677948 0.27772998809814453 0.8476759791374207
          -0.6106529831886292 -0.2990410029888153 0.7332649827003479 -0.6022700071334839 -0.32585999369621277 0.7287560105323792
          -0.4391629993915558 -0.31919199228286743 0.8397930264472961 -0.22356100380420685 -0.2527509927749634 0.9413490295410156
          -0.014733999967575073 -0.08015099912881851 0.9966740012168884 0.09272799640893936 0.1116890013217926 0.9894070029258728
          -0.1780170053243637 0.3097279965877533 0.9340119957923889 0.4973509907722473 0.29605498909950256 0.8154720067977905
          0.4053089916706085 0.28694599866867065 0.8679779767990112 0.4128440022468567 0.49477800726890564 0.7646920084953308
          0.4521549940109253 0.30520498752593994 0.8380969762802124 0.4818809926509857 0.40577998757362366 0.7766169905662537
          0.312950998544693 0.4892829954624176 0.8140419721603394 0.23395200073719025 0.3964320123195648 0.8877540230751038
          0.03312100097537041 0.44501399993896484 0.894910991191864 -0.7794650197029114 -0.1359429955482483 0.6115170121192932
          -0.8170310258865356 -0.04318799823522568 0.574974000453949 -0.7298340201377869 0.045524999499320984 0.6821069717407227
          -0.4407550096511841 0.21930399537086487 0.8704259991645813 -0.7635070085525513 -0.2904210090637207 0.5768120288848877
          0.20196199417114258 0.22400300204753876 0.9534329771995544 0.4144760072231293 0.25438499450683594 0.8737840056419373
          0.45652899146080017 0.2932699918746948 0.8399850130081177 0.40347498655319214 0.2910839915275574 0.867455005645752
          0.4616219997406006 0.31299299001693726 0.8300250172615051 0.5548909902572632 0.2720490097999573 0.7861840128898621
          0.43570899963378906 0.28050199151039124 0.8552640080451965 0.47584301233291626 0.3044619858264923 0.8251519799232483
          -0.5965759754180908 -0.29412099719047546 0.7467190027236938 -0.819625973701477 -0.29781800508499146 0.4894050061702728
          -0.46649399399757385 -0.36233800649642944 0.8069049715995789 -0.05774400010704994 -0.05048299953341484 0.9970539808273315
          -0.2977980077266693 -0.27607300877571106 0.9138380289077759 -0.41975098848342896 -0.3945389986038208 0.8174039721488953
          -0.09345799684524536 -0.18469400703907013 0.9783419966697693 0.012896999716758728 0.06136399880051613 0.9980319738388062
          0.04234499856829643 -0.08492899686098099 0.9954869747161865 0.12365800142288208 -0.009955000132322311 0.9922749996185303
          -0.5503559708595276 0.1959580034017563 0.8116090297698975 -0.4353860020637512 0.28425899147987366 0.85418701171875
          -0.2269120067358017 0.360260009765625 0.9048330187797546 0.31967198848724365 0.5689740180969238 0.7576799988746643
          0.40261200070381165 0.5851730108261108 0.7039009928703308 0.47632598876953125 0.45202499628067017 0.7541790008544922
          0.5018290281295776 0.4848819971084595 0.7162799835205078 0.5102019906044006 0.3460710048675537 0.7873550057411194
          0.5954099893569946 0.40939098596572876 0.6912919878959656 0.2056480050086975 0.5553280115127563 0.8058040142059326
          -0.2392829954624176 0.37171000242233276 0.8969810009002686 -0.06786199659109116 0.5443220138549805 0.836126983165741
          0.10429000109434128 0.5483199954032898 0.8297399878501892 -0.26088300347328186 0.40049999952316284 0.8783730268478394
          -0.9014700055122375 -0.21693499386310577 0.37455299496650696 -0.9360269904136658 -0.16866399347782135 0.30887800455093384
          -0.9167810082435608 -0.08393999934196472 0.3904699981212616 -0.8244159817695618 0.018458999693393707 0.5656840205192566
          -0.620684027671814 0.140625 0.7713469862937927 -0.7352650165557861 0.10058999806642532 0.6702730059623718
          -0.8782060146331787 -0.2959200143814087 0.3757469952106476 0.2385679930448532 0.015181000344455242 0.9710069894790649
          0.316211998462677 0.08379700034856796 0.9449800252914429 0.5798050165176392 0.1581519991159439 0.7992590069770813
          0.4320870041847229 -0.055890001356601715 0.9000980257987976 0.5201849937438965 -0.011672000400722027 0.8539739847183228
          0.5715230107307434 0.1575459986925125 0.8053200244903564 0.6184849739074707 0.148826003074646 0.7715740203857422
          0.4763120114803314 0.3098669946193695 0.8228669762611389 0.4856800138950348 0.32196199893951416 0.8126839995384216
          0.48200300335884094 0.3300609886646271 0.8116229772567749 0.6481620073318481 0.2561889886856079 0.7171149849891663
          -0.7545480132102966 -0.3619920015335083 0.5473740100860596 -0.5849519968032837 -0.4115790128707886 0.6988809704780579
          -0.9484339952468872 -0.26538199186325073 0.17333799600601196 -0.9067670106887817 -0.34416401386260986 0.24356800317764282
          -0.8588110208511353 -0.40865400433540344 0.3089439868927002 -0.5258569717407227 -0.41712498664855957 0.7412700057029724
          -0.39496299624443054 -0.3765780031681061 0.8379700183868408 -0.2821980118751526 -0.2901870012283325 0.9144160151481628
          -0.6250990033149719 -0.4885129928588867 0.6087750196456909 -0.5169559717178345 -0.5700430274009705 0.6385980248451233
          -0.41243600845336914 -0.5035300254821777 0.7591800093650818 -0.004120000172406435 -0.3040980100631714 0.9526320099830627
          -0.21849699318408966 -0.39598900079727173 0.891880989074707 0.06531800329685211 -0.2540619969367981 0.9649800062179565
          0.26684799790382385 -0.17326900362968445 0.9480350017547607 -0.8191270232200623 0.013554000295698643 0.5734519958496094
          -0.731419026851654 0.13175800442695618 0.66907799243927 -0.3394699990749359 0.3775179982185364 0.8615339994430542
          -0.5956500172615051 0.31289100646972656 0.7397980093955994 0.327567994594574 0.6061810255050659 0.7247369885444641
          0.26563501358032227 0.6043699979782104 0.7511159777641296 0.367713987827301 0.6459659934043884 0.6689649820327759
          0.48146599531173706 0.6004679799079895 0.6384590268135071 0.5666790008544922 0.4819439947605133 0.6682850122451782
          0.6710259914398193 0.4662089943885803 0.5765190124511719 0.5409799814224243 0.3987720012664795 0.7404879927635193
          0.5695850253105164 0.4050999879837036 0.7151690125465393 0.5201079845428467 0.3577300012111664 0.7755749821662903
          0.6294460296630859 0.37633800506591797 0.6798290014266968 0.6597369909286499 0.39508798718452454 0.6392599940299988
          0.061152998358011246 0.5924410223960876 0.803288996219635 0.1784919947385788 0.6260390281677246 0.7590889930725098
          -0.3543179929256439 0.4734640121459961 0.8064060211181641 -0.18885299563407898 0.5864260196685791 0.7876790165901184
          -0.4952169954776764 0.36031100153923035 0.7905290126800537 -0.9746260046958923 -0.20618200302124023 0.08714400231838226
          -0.9708179831504822 -0.23334600031375885 0.055337000638246536 -0.954571008682251 -0.19015200436115265 0.22942499816417694
          -0.9250329732894897 -0.10394000262022018 0.3653919994831085 -0.9737610220909119 -0.18259499967098236 0.13582900166511536
          0.6712610125541687 -0.08833400160074234 0.7359390258789062 0.6569560170173645 0.0654039978981018 0.7510870099067688
          0.4979040026664734 -0.2047179937362671 0.84272301197052 0.3778800070285797 -0.36102500557899475 0.8525649905204773
          0.6408029794692993 -0.13772499561309814 0.7552499771118164 0.8670160174369812 0.18859300017356873 0.46121200919151306
          0.6311730146408081 0.286653995513916 0.7207289934158325 0.8724799752235413 0.20680400729179382 0.44273000955581665
          0.5736039876937866 0.269199013710022 0.7736350297927856 -0.7714669704437256 -0.47440698742866516 0.424001008272171
          -0.8253070116043091 -0.4623839855194092 0.32414400577545166 -0.6747300028800964 -0.4838219881057739 0.5573650002479553
          -0.9233629703521729 -0.36912599205970764 -0.1055769994854927 -0.928617000579834 -0.3706969916820526 -0.015930000692605972
          -0.889680027961731 -0.45441800355911255 0.04441700130701065 -0.8613359928131104 -0.502938985824585 0.07177799940109253
          -0.4311949908733368 -0.4887700080871582 0.7584030032157898 -0.3541580140590668 -0.4145359992980957 0.8382909893989563
          -0.693153977394104 -0.6510149836540222 0.30938300490379333 -0.7421619892120361 -0.6045539975166321 0.2893269956111908
          -0.5888640284538269 -0.6923679709434509 0.4169729948043823 -0.5290899872779846 -0.6452919840812683 0.5510550141334534
          -0.029676999896764755 -0.45008599758148193 0.8924919962882996 -0.3912059962749481 -0.5439550280570984 0.7423419952392578
          -0.219991996884346 -0.47208601236343384 0.8536620140075684 0.1811400055885315 -0.38312599062919617 0.9057610034942627
          -0.8820639848709106 -0.031213000416755676 0.4700950086116791 -0.7489140033721924 0.16606900095939636 0.6415209770202637
          0.23764899373054504 0.6791239976882935 0.694487988948822 0.2719379961490631 0.708968997001648 0.6507019996643066
          0.39264801144599915 0.714447021484375 0.579131007194519 0.3286609947681427 0.7700300216674805 0.5468419790267944
          0.5571950078010559 0.5169569849967957 0.6498379707336426 0.6738709807395935 0.47588300704956055 0.5651829838752747
          0.4846160113811493 0.682548999786377 0.5470589995384216 0.9334290027618408 0.22905699908733368 0.27612200379371643
          0.7002930045127869 0.40878599882125854 0.5852220058441162 0.9323059916496277 0.2054940015077591 0.2976189851760864
          0.5640169978141785 0.3691680133342743 0.7386469841003418 0.6083660125732422 0.35475701093673706 0.7099559903144836
          0.5804309844970703 0.3679249882698059 0.7264509797096252 0.5266270041465759 0.44759601354599 0.7227190136909485
          0.6293529868125916 0.30829399824142456 0.7133510112762451 -0.17993900179862976 0.6349409818649292 0.7513139843940735
          0.07143700122833252 0.6915109753608704 0.7188249826431274 0.13375799357891083 0.709460973739624 0.6919350028038025
          -0.5325289964675903 0.3190929889678955 0.7839599847793579 -0.4645879864692688 0.5414149761199951 0.70073401927948
          -0.5967720150947571 0.3890480101108551 0.701786994934082 -0.9632850289344788 -0.2672579884529114 -0.025577999651432037
          -0.9851030111312866 -0.17191900312900543 0.00407300004735589 -0.9708399772644043 -0.239546000957489 0.009355000220239162
          -0.9374759793281555 -0.3273800015449524 -0.11816000193357468 -0.9570310115814209 -0.16790300607681274 0.2364320009946823
          -0.9298020005226135 -0.36259201169013977 0.06321299821138382 -0.9653300046920776 -0.2328760027885437 0.11792600154876709
          -0.9406369924545288 -0.26178601384162903 0.2160319983959198 0.6505079865455627 -0.2916170060634613 0.7012839913368225
          0.7014359831809998 -0.19649000465869904 0.6851119995117188 0.6956419944763184 -0.08980400115251541 0.7127540111541748
          0.6645939946174622 0.1132429987192154 0.7385730147361755 0.7183229923248291 -0.002831999910995364 0.6957039833068848
          0.5328689813613892 -0.373432993888855 0.7593410015106201 0.5126140117645264 -0.49917200207710266 0.6986089944839478
          0.314860999584198 -0.4758110046386719 0.8212590217590332 0.9726750254631042 0.08379799872636795 0.2165219932794571
          0.5291590094566345 0.3279849886894226 0.7825700044631958 0.6058459877967834 0.26429399847984314 0.7504000067710876
          -0.7856050133705139 -0.5692099928855896 0.2425370067358017 -0.8222820162773132 -0.5517280101776123 0.1394599974155426
          -0.8578360080718994 -0.47920799255371094 -0.18568100035190582 -0.7969790101051331 -0.4710189998149872 -0.3781079947948456
          -0.7903590202331543 -0.5850759744644165 -0.18171100318431854 -0.5646640062332153 -0.6207829713821411 0.5438590049743652
          -0.5635600090026855 -0.6450920104980469 0.515999972820282 -0.6287789940834045 -0.7214069962501526 0.2901889979839325
          -0.7445200085639954 -0.6675519943237305 -0.007992999628186226 -0.6901249885559082 -0.7228270173072815 0.035326000303030014
          -0.6421560049057007 -0.7262769937515259 0.2452699989080429 -0.35928401350975037 -0.5210040211677551 0.7742540240287781
          0.1237500011920929 -0.5884889960289001 0.7989779710769653 -0.2323710024356842 -0.5913559794425964 0.7722049951553345
          0.14657700061798096 -0.4591990113258362 0.8761569857597351 -0.4730539917945862 -0.6134129762649536 0.6324120163917542
          -0.9590989947319031 -0.10492199659347534 0.2629069983959198 -0.8643760085105896 0.0034119999036192894 0.5028340220451355
          -0.699537992477417 0.25522100925445557 0.6674649715423584 -0.8705880045890808 0.14466999471187592 0.4702630043029785
          0.07535800337791443 0.8026540279388428 0.5916650295257568 0.23717400431632996 0.8022339940071106 0.5478770136833191
          0.14118699729442596 0.817766010761261 0.5579649806022644 0.3592979907989502 0.8247740268707275 0.4366390109062195
          0.29561498761177063 0.8389970064163208 0.45683300495147705 0.32350900769233704 0.8502309918403625 0.41527000069618225
          0.8881300091743469 0.27351200580596924 0.3693459928035736 0.5953009724617004 0.5075749754905701 0.6228839755058289
          0.44252899289131165 0.7364670038223267 0.5116490125656128 0.5427320003509521 0.6262540221214294 0.5596849918365479
          0.6129119992256165 0.46400800347328186 0.6395589709281921 0.6357349753379822 0.3786270022392273 0.6726679801940918
          0.6116380095481873 0.3843269944190979 0.6915140151977539 0.556240975856781 0.4891580045223236 0.6718040108680725
          0.5054439902305603 0.3017059862613678 0.8083930015563965 0.6374800205230713 0.38794898986816406 0.6656690239906311
          0.4850980043411255 0.5502719879150391 0.6796180009841919 0.5359169840812683 0.5135430097579956 0.6701250076293945
          -0.5321909785270691 0.4854249954223633 0.6936389803886414 -0.172433003783226 0.6827539801597595 0.7100099921226501
          -0.0369269996881485 0.7529410123825073 0.6570510268211365 -0.7195889949798584 0.36482200026512146 0.5908439755439758
          -0.8750879764556885 -0.4298590123653412 -0.22235600650310516 -0.8914999961853027 -0.4007929861545563 0.2111710011959076
          -0.8366479873657227 -0.5465890169143677 -0.03549699857831001 -0.7972149848937988 -0.559785008430481 -0.22603100538253784
          -0.9677010178565979 -0.17802900075912476 0.17849500477313995 -0.9489150047302246 -0.2861739993095398 0.13290899991989136
          -0.979889988899231 -0.13628800213336945 0.1457419991493225 0.6743919849395752 -0.396450012922287 0.6229150295257568
          0.6138030290603638 -0.43990299105644226 0.6555389761924744 0.6829190254211426 -0.3924730122089386 0.6161059737205505
          0.7290930151939392 -0.28849101066589355 0.6206420063972473 0.6856080293655396 0.045441001653671265 0.7265509963035583
          0.6534780263900757 0.16497300565242767 0.7387499809265137 0.7194809913635254 -0.08034300059080124 0.6898499727249146
          0.5357019901275635 -0.47912898659706116 0.6953120231628418 0.6143519878387451 -0.500698983669281 0.6098129749298096
          0.3993520140647888 -0.45520299673080444 0.7958070039749146 0.5722919702529907 0.22120100259780884 0.789654016494751
          0.7282320261001587 0.278219997882843 0.626317024230957 0.5891249775886536 0.37661099433898926 0.7149099707603455
          -0.7307450175285339 -0.57567298412323 -0.36689499020576477 -0.6396589875221252 -0.5559340119361877 -0.5308240056037903
          -0.7345899939537048 -0.51910001039505 -0.4369350075721741 -0.6517289876937866 -0.6998559832572937 -0.2923179864883423
          -0.6540700197219849 -0.7139480113983154 0.24993999302387238 -0.603708028793335 -0.5920950174331665 0.5338169932365417
          -0.7237920165061951 -0.6809350252151489 0.1115880012512207 -0.7224500179290771 -0.6484410166740417 0.23997899889945984
          -0.6564260125160217 -0.7522180080413818 -0.05720699951052666 -0.3732849955558777 -0.6834319829940796 0.6273589730262756
          0.7882069945335388 -0.44398799538612366 0.42614901065826416 0.3647040128707886 -0.6452400088310242 0.6713089942932129
          -0.06911599636077881 -0.5769960284233093 0.8138179779052734 0.17275600135326385 -0.5343149900436401 0.82744300365448
          0.32553601264953613 -0.45983800292015076 0.8261809945106506 -0.968995988368988 0.032281000167131424 0.24495799839496613
          -0.8221439719200134 0.2632499933242798 0.5047569870948792 -0.22960500419139862 0.7624300122261047 0.604964017868042
          -0.17825999855995178 0.8276900053024292 0.5321210026741028 -0.00659599993377924 0.8684489727020264 0.4957349896430969
          -0.07550299912691116 0.8804789781570435 0.4680339992046356 0.19265000522136688 0.869621992111206 0.45458099246025085
          0.009434999898076057 0.8728320002555847 0.4879299998283386 0.2749190032482147 0.9222530126571655 0.27178800106048584
          0.36980199813842773 0.8043460249900818 0.465052992105484 0.28762000799179077 0.9326559901237488 0.2177789956331253
          0.37373900413513184 0.8600190281867981 0.3473989963531494 0.25481098890304565 0.9035689830780029 0.34443399310112
          0.6242920160293579 0.5436130166053772 0.5610209703445435 0.6430469751358032 0.4218139946460724 0.6391890048980713
          0.6457359790802002 0.4928619861602783 0.583191990852356 0.5424699783325195 0.701304018497467 0.46249300241470337
          0.43445301055908203 0.7935659885406494 0.42603200674057007 0.641963005065918 0.593176007270813 0.48582398891448975
          0.5632309913635254 0.47860199213027954 0.6735799908638 0.6288480162620544 0.40038400888442993 0.6665149927139282
          0.7006660103797913 0.19535300135612488 0.6862249970436096 0.6551049947738647 0.5132390260696411 0.5544580221176147
          0.6992560029029846 0.4383769929409027 0.5646830201148987 0.9291579723358154 0.2540299892425537 0.2685759961605072
          -0.7447440028190613 0.40362098813056946 0.5314570069313049 -0.3336830139160156 0.6603699922561646 0.6727319955825806
          -0.576898992061615 0.5766199827194214 0.5785300135612488 -0.2772740125656128 0.701170027256012 0.6568710207939148
          -0.8910639882087708 -0.4530160129070282 0.027952000498771667 -0.6640959978103638 -0.6632840037345886 -0.345007985830307
          -0.7694540023803711 -0.6236810088157654 -0.137703999876976 -0.7158979773521423 -0.6654499769210815 -0.21134600043296814
          -0.6492059826850891 -0.5971860289573669 -0.4710629880428314 -0.9737510085105896 -0.22036799788475037 0.05698399990797043
          -0.9921330213546753 -0.12193500250577927 0.02834700047969818 -0.885254979133606 -0.441646009683609 -0.1458519995212555
          -0.9346870183944702 -0.34137800335884094 -0.09910000115633011 -0.9923269748687744 -0.06682199984788895 0.10403300076723099
          0.6744580268859863 -0.4939740002155304 0.5487210154533386 0.7078629732131958 -0.4578939974308014 0.5378310084342957
          0.6954579949378967 -0.46014299988746643 0.5519120097160339 0.7454869747161865 -0.25242599844932556 0.6168709993362427
          0.6893879771232605 -0.5273640155792236 0.4966210126876831 0.6889529824256897 -0.45936399698257446 0.5606499910354614
          0.6609990000724792 0.047605000436306 0.7488759756088257 0.5132369995117188 0.41395699977874756 0.7518159747123718
          0.5580369830131531 0.12435799837112427 0.8204450011253357 0.7394980192184448 -0.2621699869632721 0.6200079917907715
          0.7056869864463806 -0.16842199862003326 0.6882150173187256 0.6904140114784241 0.002767000114545226 0.7234089970588684
          0.5206909775733948 -0.459214985370636 0.7197239995002747 0.3619930148124695 -0.5860549807548523 0.724914014339447
          0.5242080092430115 0.5128740072250366 0.6798279881477356 -0.6109979748725891 -0.668516993522644 -0.42398801445961
          -0.5284299850463867 -0.6226950287818909 -0.577072024345398 -0.5081909894943237 -0.6187289953231812 -0.5990970134735107
          -0.5396580100059509 -0.6931689977645874 -0.47779300808906555 -0.6596540212631226 -0.6320379972457886 -0.4066750109195709
          -0.7167149782180786 -0.6934149861335754 -0.07412499934434891 -0.7168260216712952 -0.6425880193710327 0.27063098549842834
          -0.7853450179100037 -0.6190329790115356 -0.00559200020506978 -0.7803059816360474 -0.5255839824676514 -0.3389439880847931
          0.763526976108551 -0.5596129894256592 0.32227298617362976 -0.5669180154800415 -0.7208200097084045 0.39877501130104065
          -0.26415300369262695 -0.7270320057868958 0.6337569952011108 -0.5615119934082031 -0.7089639902114868 0.42670100927352905
          -0.5576109886169434 -0.7570760250091553 0.3404490053653717 0.06783100217580795 -0.6377710103988647 0.7672340273857117
          0.21580499410629272 -0.6139169931411743 0.7592980265617371 -0.9698609709739685 0.04907400161027908 0.23866599798202515
          -0.9076889753341675 0.22029399871826172 0.3571709990501404 -0.49600499868392944 0.6351100206375122 0.5921260118484497
          -0.47597798705101013 0.7393019795417786 0.47631698846817017 -0.2541710138320923 0.8683080077171326 0.42595601081848145
          0.11396200209856033 0.9212960004806519 0.37178799510002136 -0.15235300362110138 0.9277340173721313 0.34073200821876526
          0.1689240038394928 0.9678840041160583 0.1861869990825653 0.17479799687862396 0.976701021194458 0.12450099736452103
          0.21277500689029694 0.9651700258255005 0.15223099291324615 0.38238999247550964 0.8706679940223694 0.30938100814819336
          0.2816309928894043 0.9570590257644653 0.06870900094509125 0.19988200068473816 0.9780250191688538 0.05927300080657005
          0.3777120113372803 0.9078779816627502 0.18190699815750122 0.4668070077896118 0.8405050039291382 0.27503201365470886
          0.5221359729766846 0.7900630235671997 0.32120901346206665 0.09892500191926956 0.9722229838371277 0.21212300658226013
          0.044840000569820404 0.9634919762611389 0.2639569938182831 0.6837069988250732 0.46651801466941833 0.5611640214920044
          0.6431490182876587 0.3919439911842346 0.657829999923706 0.6067309975624084 0.7089089751243591 0.35961800813674927
          0.7206069827079773 0.4938330054283142 0.48667699098587036 0.696819007396698 0.5896080136299133 0.40841901302337646
          0.6201519966125488 0.5022810101509094 0.6025980114936829 0.5422930121421814 0.5574039816856384 0.6286640167236328
          0.6950160264968872 0.3756459951400757 0.6130599975585938 0.6489650011062622 0.44367000460624695 0.6180629730224609
          0.922747015953064 0.2630630135536194 0.28166699409484863 0.8676180243492126 0.3154259920120239 0.38437700271606445
          -0.8018450140953064 0.4412679970264435 0.40289801359176636 -0.409512996673584 0.6784120202064514 0.6099640130996704
          -0.5654379725456238 -0.7297009825706482 -0.38446900248527527 -0.48733600974082947 -0.722087025642395 -0.4910140037536621
          -0.7017679810523987 -0.6361380219459534 -0.32070299983024597 -0.599918007850647 -0.7124450206756592 -0.3640339970588684
          -0.9530739784240723 -0.2718980014324188 -0.1331229954957962 -0.9976180195808411 -0.01629900000989437 0.06702599674463272
          -0.9952499866485596 -0.0745680034160614 -0.06259500235319138 -0.9824360013008118 0.04858500137925148 0.18016299605369568
          -0.9752230048179626 -0.17880399525165558 -0.13026699423789978 -0.9797589778900146 -0.12216199934482574 -0.15858599543571472
          -0.8996670246124268 -0.35624799132347107 -0.252362996339798 0.754863977432251 -0.487309992313385 0.43898800015449524
          0.6533510088920593 -0.6427909731864929 0.39994099736213684 0.6970750093460083 -0.6868230104446411 0.2058189958333969
          0.5836449861526489 -0.6536030173301697 0.48183199763298035 0.7509080171585083 -0.5826190114021301 0.3109540045261383
          0.5442320108413696 -0.5852609872817993 0.6010670065879822 0.7172510027885437 -0.6017969846725464 0.35127100348472595
          0.7040470242500305 -0.4373210072517395 0.5595250129699707 0.6480309963226318 -0.6766560077667236 0.3495599925518036
          0.6445299983024597 -0.6269180178642273 0.4376699924468994 0.6271190047264099 -0.7017340064048767 0.33807000517845154
          0.5818819999694824 -0.6605150103569031 0.474481999874115 0.6885550022125244 0.21797700226306915 0.691648006439209
          0.6625030040740967 0.24297399818897247 0.7085570096969604 0.5419170260429382 0.29573801159858704 0.7866799831390381
          0.5398989915847778 0.548183023929596 0.6387519836425781 0.5377169847488403 0.5942230224609375 0.5981299877166748
          0.49880799651145935 0.5771070122718811 0.6466360092163086 0.7634450197219849 -0.07509800046682358 0.6414920091629028
          0.7881510257720947 -0.0884609967470169 0.6090909838676453 0.7428590059280396 -0.34060800075531006 0.5763220191001892
          0.7299180030822754 0.17785300314426422 0.6599910259246826 0.47407400608062744 -0.5251839756965637 0.7067070007324219
          0.1049719974398613 -0.7852399945259094 0.6102290153503418 0.3883500099182129 -0.7107750177383423 0.5865010023117065
          0.1470559984445572 -0.8540679812431335 0.49894198775291443 -0.5127390027046204 -0.5714970231056213 -0.6406949758529663
          -0.5272970199584961 -0.5658940076828003 -0.6338149905204773 -0.5141509771347046 -0.6636710166931152 -0.5433130264282227
          -0.5148159861564636 -0.6073939800262451 -0.6050099730491638 -0.4254019856452942 -0.7242910265922546 -0.542618989944458
          -0.49059998989105225 -0.6921340227127075 -0.5293980240821838 -0.5564659833908081 -0.65037602186203 -0.5170649886131287
          -0.6140210032463074 -0.5807740092277527 -0.5344910025596619 -0.5843960046768188 -0.6480159759521484 -0.4884229898452759
          -0.6969969868659973 -0.3354859948158264 -0.6337550282478333 -0.7454620003700256 -0.6588720083236694 0.1008630022406578
          -0.7836880087852478 -0.5686410069465637 -0.2499600052833557 -0.776561975479126 -0.3547469973564148 -0.5206779837608337
          -0.01232299953699112 -0.7409080266952515 0.6714929938316345 -0.41855698823928833 -0.789546012878418 0.4488070011138916
          -0.5530089735984802 -0.8005939722061157 0.23071500658988953 -0.37128400802612305 -0.8317369818687439 0.4127489924430847
          -0.6117730140686035 -0.7473949790000916 0.25910499691963196 -0.9411309957504272 0.23357099294662476 0.24437199532985687
          -0.6764559745788574 0.5330209732055664 0.5082269906997681 -0.7258260250091553 0.5686489939689636 0.3870590031147003
          -0.6294069886207581 0.70905601978302 0.31794100999832153 -0.45181798934936523 0.8355950117111206 0.3124760091304779
          -0.376120001077652 0.8796380162239075 0.2911530137062073 -0.36691200733184814 0.9191160202026367 0.1435299962759018
          -0.17507299780845642 0.9665200114250183 0.1875849962234497 0.00597700010985136 0.9992690086364746 0.03775700181722641