<?xml version="1.0"?>
<VTKFile type="PolyData" version="0.1" byte_order="LittleEndian" header_type="UInt32" compressor="vtkZLibDataCompressor">
  <PolyData>
    <Piece NumberOfPoints="798" NumberOfVerts="0" NumberOfLines="0" NumberOfStrips="0" NumberOfPolys="1595">
      <PointData Normals="Normals">
        <DataArray type="Float32" Name="Normals" NumberOfComponents="3" format="ascii" RangeMin="0.9999992771349934" RangeMax="1.0000006985890775">
          -0.5139679908752441 0.5851370096206665 0.6272580027580261 -0.51323401927948 0.42638400197029114 0.7448409795761108
          -0.2626410126686096 0.497173011302948 0.8269450068473816 -0.24510100483894348 0.6977099776268005 0.6731460094451904
          -0.6829059720039368 0.5279060006141663 0.5049309730529785 -0.4837830066680908 0.761696994304657 0.43101200461387634
          -0.19505800306797028 0.15523099899291992 0.9684290289878845 -0.3664120137691498 0.053341999650001526 0.9289230108261108
          -0.7358180284500122 0.30806300044059753 0.6030499935150146 0.035190001130104065 0.05490799993276596 0.9978709816932678
          0.11812099814414978 0.18078799545764923 0.976402997970581 -0.06644699722528458 0.8487420082092285 0.5246149897575378
          0.2025199979543686 0.21684999763965607 0.9549670219421387 -0.21099400520324707 0.9307489991188049 0.29864200949668884
          -0.9049550294876099 0.3284440040588379 0.2705189883708954 -0.9133650064468384 0.40652400255203247 0.02240700088441372
          -0.7928289771080017 0.6093500256538391 -0.010718000121414661 -0.6234019994735718 0.7741590142250061 -0.10976500064134598
          0.17240899801254272 -0.3630799949169159 0.9156680107116699 0.08358000218868256 -0.20575599372386932 0.9750279784202576
          -0.3245849907398224 -0.037349000573158264 0.9451190233230591 -0.8393219709396362 0.3756299912929535 0.392987996339798
          0.29722899198532104 -0.2503789961338043 0.9213929772377014 0.41226398944854736 -0.253944993019104 0.8749570250511169
          0.27894100546836853 0.27131199836730957 0.9211850166320801 0.17967399954795837 0.9390130043029785 0.2932080030441284
          0.07150900363922119 0.7460780143737793 0.6620069742202759 -0.10497300326824188 0.9731559753417969 0.20481200516223907
          -0.06383299827575684 0.991998016834259 0.10893099755048752 0.44459301233291626 -0.25804999470710754 0.8577569723129272
          -0.43140900135040283 0.8970419764518738 -0.09593000262975693 -0.2996920049190521 0.9427210092544556 -0.1464969962835312
          -0.958620011806488 0.28406599164009094 0.018828000873327255 -0.8919489979743958 0.4265030026435852 -0.15007300674915314
          -0.9527890086174011 0.2963379919528961 -0.06616400182247162 -0.9202010035514832 0.356671005487442 -0.16129499673843384
          -0.8356509804725647 0.4791029989719391 -0.26860299706459045 -0.7720990180969238 0.6088489890098572 -0.18211500346660614
          -0.5545740127563477 0.7693390250205994 -0.3171190023422241 -0.6434950232505798 0.7148860096931458 -0.273591011762619
          0.4125489890575409 -0.35413700342178345 0.8392800092697144 0.2555390000343323 -0.6051470041275024 0.7539880275726318
          0.28321701288223267 -0.6820840239524841 0.6742029786109924 0.34024399518966675 -0.5657230019569397 0.7511270046234131
          0.083467997610569 -0.3625360131263733 0.9282249808311462 0.012505000457167625 -0.40759098529815674 0.913079023361206
          0.1101519986987114 -0.429735004901886 0.8962110280990601 -0.4550659954547882 0.06612300127744675 0.8879989981651306
          -0.813435971736908 0.3793469965457916 0.44092801213264465 -0.721435010433197 0.3524860143661499 0.5960580110549927
          -0.8067399859428406 0.5765860080718994 -0.12929999828338623 0.49080801010131836 -0.3781619966030121 0.7849209904670715
          0.4496850073337555 -0.21625399589538574 0.86661297082901 0.4348500072956085 0.42544999718666077 0.7936609983444214
          0.2671259939670563 0.8386160135269165 0.4747290015220642 0.23299899697303772 0.9544860124588013 0.1861950010061264
          0.08518999814987183 0.995730996131897 0.03552599996328354 0.5544729828834534 0.6581090092658997 0.5093650221824646
          -0.3139599859714508 0.8687360286712646 -0.38304901123046875 -0.4281269907951355 0.8236579895019531 -0.3718790113925934
          -0.08117199689149857 0.9823619723320007 -0.16845199465751648 -0.5488520264625549 0.7411940097808838 -0.3865149915218353
          -0.9289519786834717 0.3673839867115021 0.04557200148701668 -0.8239650130271912 0.5666099786758423 -0.005948000121861696
          -0.9132109880447388 0.40678301453590393 -0.02392899990081787 -0.8804489970207214 0.47048500180244446 -0.05876300111413002
          -0.5934460163116455 0.8013070225715637 -0.07569699734449387 -0.7960330247879028 0.6022859811782837 0.059852998703718185
          -0.2164890021085739 0.8792160153388977 -0.42439600825309753 0.1737779974937439 0.6501200199127197 -0.739691972732544
          0.5088250041007996 -0.5357630252838135 0.6738370060920715 0.3332419991493225 -0.7238690257072449 0.6041229963302612
          0.1308560073375702 -0.5151330232620239 0.8470630049705505 0.40031298995018005 -0.5699769854545593 0.7175490260124207
          0.3901880085468292 -0.6951490044593811 0.6037560105323792 0.10823599994182587 -0.48216599225997925 0.8693680167198181
          0.1385589987039566 -0.492251992225647 0.8593540191650391 0.4400930106639862 -0.7319920063018799 0.5201020240783691
          0.4874880015850067 -0.6942600011825562 0.5294889807701111 -0.263606995344162 0.05354699864983559 0.963142991065979
          -0.7263759970664978 0.4078019857406616 0.5532410144805908 -0.8243799805641174 0.5412920117378235 0.16553199291229248
          -0.7840980291366577 0.45216500759124756 0.42513298988342285 -0.778963029384613 0.6245049834251404 0.056664999574422836
          0.4788939952850342 -0.603305995464325 0.6377159953117371 0.46104100346565247 -0.3962239921092987 0.7940070033073425
          0.5370209813117981 -0.5999979972839355 0.5929679870605469 0.4557900130748749 -0.39975300431251526 0.7952690124511719
          0.599232017993927 -0.006417999975383282 0.8005499839782715 0.11240600049495697 0.9876899719238281 0.10878100246191025
          0.10791599750518799 0.9882130026817322 0.108583003282547 0.12610900402069092 0.9895210266113281 0.07031600177288055
          0.28975799679756165 0.9118019938468933 0.2909590005874634 0.6701070070266724 0.2192620038986206 0.7091410160064697
          0.5243679881095886 0.5317190289497375 0.6650660037994385 -0.4024220108985901 0.8276090025901794 -0.3913060128688812
          -0.18514999747276306 0.8513200283050537 -0.4908910095691681 -0.16993899643421173 0.6903319954872131 -0.7032520174980164
          -0.09736999869346619 0.9544950127601624 -0.28188401460647583 -0.23010000586509705 0.8522040247917175 -0.46989598870277405
          -0.18345199525356293 0.8624529838562012 -0.47172099351882935 -0.842985987663269 0.5251410007476807 0.11662500351667404
          -0.8442999720573425 0.5292019844055176 0.0842830017209053 -0.7357050180435181 0.6741949915885925 0.0648059993982315
          -0.4597100019454956 0.8713549971580505 -0.17148299515247345 -0.6675919890403748 0.7414939999580383 -0.06713300198316574
          -0.7192100286483765 0.6911630034446716 0.07092799991369247 -0.841750979423523 0.523406982421875 0.13228699564933777
          -0.5151510238647461 0.8253089785575867 -0.23126700520515442 0.11178799718618393 0.4876820147037506 -0.8658350110054016
          0.37326300144195557 0.7488489747047424 -0.5476319789886475 0.032662998884916306 0.6519700288772583 -0.7575410008430481
          -0.3021030128002167 0.7886289954185486 -0.535535991191864 0.5575900077819824 -0.042782001197338104 -0.8290129899978638
          0.6920629739761353 0.2500680088996887 -0.677137017250061 0.0987740010023117 -0.32959601283073425 -0.9389410018920898
          0.6845660209655762 0.4499639868736267 -0.5734999775886536 0.5068110227584839 -0.654013991355896 0.561610996723175
          0.4628480076789856 -0.5447940230369568 0.6992639899253845 0.44886699318885803 -0.5121219754219055 0.7322909832000732
          0.5730969905853271 -0.5550739765167236 0.602869987487793 0.497640997171402 -0.5224440097808838 0.6923909783363342
          0.6341540217399597 0.3642509877681732 0.6820340156555176 0.5355039834976196 -0.7467719912528992 0.39441999793052673
          0.573183000087738 -0.728430986404419 0.37529900670051575 0.4914819896221161 -0.8199480175971985 0.2934800088405609
          0.5292779803276062 -0.7222790122032166 0.4451720118522644 0.5329859852790833 -0.6880379915237427 0.4924730062484741
          -0.38345399498939514 0.9170420169830322 -0.10953100025653839 -0.6873310208320618 0.707198977470398 0.16566599905490875
          -0.8149150013923645 0.5701320171356201 0.10422199964523315 0.505657970905304 -0.6863769888877869 0.5226809978485107
          0.44875800609588623 -0.7110270261764526 0.5413470268249512 0.41424500942230225 -0.7386519908905029 0.5317839980125427
          0.4556559920310974 -0.6288779973983765 0.6299920082092285 0.5886930227279663 -0.2635349929332733 0.7641929984092712
          -0.05970599874854088 0.9702929854393005 -0.23444800078868866 -0.09038899838924408 0.949396014213562 -0.30079299211502075
          0.11882799863815308 0.9927840232849121 0.016103999689221382 0.3457300066947937 0.897570013999939 0.2735680043697357
          0.4021190106868744 0.786516010761261 0.46871501207351685 0.2866300046443939 0.9576399922370911 -0.027734000235795975
          0.6546069979667664 -0.1532679945230484 0.7402690052986145 0.6588550209999084 -0.045802000910043716 0.7508739829063416
          0.5836259722709656 0.4897550046443939 0.647704005241394 0.6263499855995178 0.07241199910640717 0.7761710286140442
          0.5314570069313049 0.7484139800071716 0.3967739939689636 -0.16377699375152588 0.5578320026397705 -0.8136339783668518
          -0.22171500325202942 0.8394219875335693 -0.49619901180267334 -0.32895898818969727 0.18839600682258606 -0.9253609776496887
          -0.8622130155563354 0.4930970072746277 0.11594600230455399 -0.6398900151252747 0.7434099912643433 -0.19463500380516052
          -0.7558509707450867 0.653298020362854 0.04348599910736084 -0.6755229830741882 0.7245270013809204 -0.13685399293899536
          -0.7704470157623291 0.6374710202217102 0.006465999875217676 -0.8975589871406555 0.4248409867286682 0.11788800358772278
          -0.8628919720649719 0.4899420142173767 0.123990997672081 -0.8991490006446838 0.4265570044517517 0.09788300096988678
          -0.6498810052871704 0.7227140069007874 -0.23524199426174164 0.2463340014219284 0.6015210151672363 -0.7599290013313293
          0.26106300950050354 0.2321770042181015 -0.9369840025901794 0.09374099969863892 0.4860289990901947 -0.8689010143280029
          0.341484010219574 0.3405809998512268 -0.876010000705719 0.29476499557495117 0.18399399518966675 -0.9376890063285828
          0.3121280074119568 0.13707299530506134 -0.9400990009307861 0.6888350248336792 0.5309470295906067 -0.49355998635292053
          0.7347360253334045 0.628171980381012 -0.2560519874095917 0.46193599700927734 0.6007940173149109 -0.6524279713630676
          0.6569380164146423 0.665224015712738 -0.35483700037002563 -0.19447000324726105 0.6183540225028992 -0.7614589929580688
          -0.6239740252494812 0.7068510055541992 -0.33319300413131714 0.7533599734306335 0.04669800028204918 -0.6559479832649231
          0.28455600142478943 -0.3675000071525574 -0.8854209780693054 0.5372290015220642 -0.377483993768692 -0.7542480230331421
          0.7761849761009216 -0.08231399953365326 -0.6251090168952942 0.7827789783477783 0.43438300490379333 -0.44561100006103516
          0.8925309777259827 0.2063950002193451 -0.400985985994339 0.03908799961209297 -0.5290459990501404 -0.8476920127868652
          -0.21261000633239746 -0.5847200155258179 -0.7828789949417114 -0.3671649992465973 -0.5467879772186279 -0.7524710297584534
          0.5551679730415344 -0.45032599568367004 0.6992809772491455 0.572288990020752 -0.576570987701416 0.5831390023231506
          0.6957079768180847 -0.5233809947967529 0.49199798703193665 0.6893579959869385 -0.6756359934806824 0.2613460123538971
          0.5700479745864868 -0.380264014005661 0.7283170223236084 0.5888950228691101 -0.5488920211791992 0.5932279825210571
          0.5144810080528259 -0.37202200293540955 0.7725989818572998 0.7075150012969971 -0.40287700295448303 0.5806139707565308
          0.7012349963188171 0.6946730017662048 0.16031000018119812 -0.3421669900417328 0.8099849820137024 -0.4762830138206482
          0.5921139717102051 -0.7939350008964539 0.13808700442314148 0.4568679928779602 -0.7734410166740417 0.4393869936466217
          0.36650800704956055 -0.8998950123786926 -0.23634900152683258 0.1942490041255951 -0.979744017124176 -0.04867900162935257
          -0.30646300315856934 0.9500470161437988 -0.05909299850463867 -0.15049000084400177 0.9815549850463867 0.11791200190782547
          0.3868910074234009 -0.774370014667511 0.5006660223007202 0.34141799807548523 -0.8596779704093933 0.3799839913845062
          0.4077970087528229 -0.7518110275268555 0.5181509852409363 0.5151900053024292 -0.5696520209312439 0.6403710246086121
          -0.4029340147972107 0.5446649789810181 -0.7355160117149353 0.009286000393331051 0.9838879704475403 -0.1785459965467453
          -0.38576599955558777 0.5535929799079895 -0.7380509972572327 0.43934500217437744 0.8609070181846619 0.25654399394989014
          0.05411799997091293 0.9658359885215759 -0.2534419894218445 0.25473400950431824 0.8892499804496765 -0.3799290060997009
          0.17148500680923462 0.9384589791297913 -0.29981300234794617 0.5300289988517761 0.8422600030899048 0.09832199662923813
          0.4675610065460205 0.8737310171127319 -0.1340949982404709 0.5971840023994446 -0.33758699893951416 0.727603018283844
          0.6399809718132019 -0.036958999931812286 0.7675009965896606 0.6257110238075256 0.4224820137023926 0.6557400226593018
          0.5606880187988281 0.8230140209197998 0.0909779965877533 -0.5852259993553162 -0.37159299850463867 -0.7207139730453491
          -0.8480449914932251 0.5298569798469543 0.008434000425040722 -0.8011620044708252 0.5922729969024658 -0.08574000000953674
          0.06910800188779831 0.994268000125885 0.08157899975776672 -0.12373899668455124 0.9624149799346924 -0.24175600707530975
          -0.4778069853782654 0.6014710068702698 -0.6402599811553955 -0.9305160045623779 0.3662460148334503 0.0021430000197142363
          -0.6850839853286743 0.6487339735031128 -0.33136600255966187 0.41785699129104614 0.5135729908943176 -0.7494249939918518
          0.13743099570274353 0.3553360104560852 -0.924580991268158 0.32749998569488525 0.15987299382686615 -0.9312270283699036
          0.3516480028629303 0.044523999094963074 -0.9350730180740356 0.44844499230384827 0.24521300196647644 -0.8595160245895386
          0.9114710092544556 0.37146198749542236 -0.17674000561237335 0.5634570121765137 0.22723400592803955 -0.7942799925804138
          0.8017690181732178 0.36333200335502625 -0.4745059907436371 0.7757830023765564 0.5958430171012878 -0.20768100023269653
          0.7780410051345825 0.575980007648468 -0.25079700350761414 -0.41808798909187317 0.6123769879341125 -0.6709660291671753
          0.9647229909896851 -0.21025100350379944 -0.15844200551509857 0.2761310040950775 -0.4540719985961914 -0.8470950126647949
          0.040111999958753586 -0.511559009552002 -0.8583120107650757 -0.011562000028789043 -0.6177880167961121 -0.7862600088119507
          0.7976179718971252 -0.49417999386787415 -0.34582000970840454 0.241799995303154 -0.675383985042572 -0.696698009967804
          0.45251500606536865 -0.7462130188941956 -0.4882580041885376 0.9805750250816345 0.1805659979581833 -0.07660400122404099
          -0.41293999552726746 -0.5973230004310608 -0.6875209808349609 -0.37393999099731445 -0.5798969864845276 -0.7238010168075562
          -0.5812349915504456 -0.6227250099182129 -0.523813009262085 -0.5189949870109558 -0.6292669773101807 -0.5785040259361267
          0.5999619960784912 -0.3307479918003082 0.7284579873085022 0.5566589832305908 -0.34698501229286194 0.7548059821128845
          0.5489979982376099 -0.3091219961643219 0.7765589952468872 0.6415799856185913 -0.44556599855422974 0.6243770122528076
          0.6519160270690918 -0.27826499938964844 0.7053899765014648 0.5948489904403687 -0.31201401352882385 0.7408120036125183
          0.6975610256195068 -0.3799560070037842 0.6074879765510559 0.7417430281639099 -0.431084007024765 0.5137940049171448
          0.7854049801826477 -0.5335689783096313 0.31375598907470703 0.7509509921073914 -0.6537039875984192 0.09350399672985077
          0.7019699811935425 -0.7081890106201172 0.07554300129413605 0.8215630054473877 -0.33683300018310547 0.459975004196167
          0.6742410063743591 -0.3716740012168884 0.6381670236587524 0.7105759978294373 -0.19102300703525543 0.6771939992904663
          0.7497889995574951 0.6303200125694275 0.20127899944782257 0.8395609855651855 0.3083310127258301 0.44729098677635193
          0.3141860067844391 0.9216210246086121 -0.22782200574874878 -0.6432909965515137 0.5848060250282288 -0.494145005941391
          -0.3580299913883209 0.6905220150947571 -0.6284850239753723 0.18890799582004547 0.9386550188064575 -0.2885130047798157
          0.6627510190010071 -0.7475209832191467 -0.04442000016570091 0.594199001789093 -0.7748780250549316 -0.2156209945678711
          0.28610101342201233 -0.8690840005874634 -0.403533011674881 0.18098199367523193 -0.84483802318573 -0.5034819841384888
          0.30946600437164307 -0.872418999671936 0.3783070147037506 0.03874000161886215 -0.9986870288848877 0.033521998673677444
          -0.1852409988641739 -0.8632450103759766 -0.46956801414489746 0.06411799788475037 -0.835893988609314 -0.5451329946517944
          -0.005402000155299902 0.9380289912223816 0.3465160131454468 -0.5947660207748413 0.7803099751472473 0.19331300258636475
          -0.8361669778823853 0.5387420058250427 -0.1028669998049736 0.3132280111312866 0.8519399762153625 0.41962701082229614
          0.4409340023994446 -0.6864719986915588 0.578216016292572 0.3471269905567169 -0.8170539736747742 0.4603550136089325
          -0.13192200660705566 0.3373520076274872 -0.9320889711380005 -0.6383839845657349 -0.3401179909706116 -0.6904969811439514
          -0.6723510026931763 -0.2872059941291809 -0.6822440028190613 0.46077999472618103 0.8233850002288818 -0.3312380015850067
          0.4271549880504608 -0.6816490292549133 0.594048023223877 0.5695890188217163 -0.4223079979419708 0.705141007900238
          0.6628770232200623 -0.06956099718809128 0.7454900145530701 0.7898859977722168 0.49612998962402344 0.36046499013900757
          0.6183120012283325 0.7767429947853088 -0.11983499675989151 -0.6754149794578552 -0.4552229940891266 -0.5801600217819214
          -0.9391980171203613 0.32452601194381714 0.1122099980711937 -0.8514710068702698 0.498879998922348 -0.16160200536251068
          -0.6692730188369751 0.6225990056991577 -0.40551701188087463 0.44707000255584717 0.8849250078201294 0.13052700459957123
          0.2057269960641861 0.9158499836921692 -0.3448129892349243 -0.3485260009765625 0.11754000186920166 -0.9298999905586243
          -0.08438099920749664 0.38253501057624817 -0.9200800061225891 -0.8484510183334351 0.3181520104408264 -0.422978013753891
          -0.6047930121421814 0.12730799615383148 -0.7861419916152954 -0.9683359861373901 0.23816999793052673 0.0748319998383522
          -0.988411009311676 0.11121399700641632 0.10331899672746658 -0.9832929968833923 0.18189199268817902 0.007096000015735626
          -0.39325401186943054 0.5520169734954834 -0.7352749705314636 0.15978699922561646 0.3569760024547577 -0.9203460216522217
          0.357820987701416 0.02155200019478798 -0.9335409998893738 0.3649899959564209 0.2467219978570938 -0.897724986076355
          0.44946300983428955 0.07684700191020966 -0.8899869918823242 0.37157899141311646 0.048732999712228775 -0.9271209836006165
          0.24912700057029724 0.004414000082761049 -0.9684609770774841 0.41729599237442017 0.10213600099086761 -0.9030129909515381
          0.9748759865760803 0.1874929964542389 0.12026099860668182 0.9581180214881897 0.2861909866333008 -0.01026500016450882
          0.7843850255012512 0.26236799359321594 -0.5620530247688293 0.7841299772262573 -0.6183199882507324 -0.05310099944472313
          0.9594280123710632 -0.07251600176095963 0.27246999740600586 0.848846971988678 -0.4807249903678894 0.2199140042066574
          0.8333389759063721 -0.30074599385261536 0.4637869894504547 -0.3171960115432739 -0.7240369915962219 -0.6125010251998901
          -0.5183690190315247 -0.5991790294647217 -0.6101459860801697 -0.4431760013103485 -0.6982370018959045 -0.5621920228004456
          -0.6382820010185242 -0.526449978351593 -0.5616459846496582 -0.6241059899330139 -0.680296003818512 -0.3843039870262146
          -0.41183599829673767 -0.8745139837265015 -0.25615599751472473 -0.29826000332832336 -0.870203971862793 -0.3921560049057007
          0.6082180142402649 -0.3507840037345886 0.7120540142059326 0.789991021156311 -0.4356360137462616 0.4314349889755249
          0.6032199859619141 -0.21708400547504425 0.7674639821052551 0.5778350234031677 -0.28838101029396057 0.7635070085525513
          0.6888779997825623 -0.31206199526786804 0.6542670130729675 0.7739850282669067 -0.37672001123428345 0.5089489817619324
          0.8830569982528687 -0.37874799966812134 0.2770549952983856 0.8811650276184082 -0.4645639955997467 -0.08791299909353256
          0.6713820099830627 -0.2253270000219345 0.7060269713401794 0.8660920262336731 -0.49985799193382263 0.005115000065416098
          0.3508960008621216 -0.5973749756813049 -0.7211210131645203 0.7740409970283508 -0.6131510138511658 -0.157818004488945
          0.36493998765945435 -0.16360899806022644 0.9165430068969727 0.39155301451683044 0.015142999589443207 0.9200310111045837
          0.5537229776382446 0.2758229970932007 0.7856929898262024 0.7044169902801514 0.4090850055217743 0.5800399780273438
          0.500881016254425 0.8179330229759216 0.2830269932746887 -0.09819799661636353 0.9065880179405212 -0.41043299436569214
          -0.2575410008430481 0.9256049990653992 -0.2773590087890625 -0.3917109966278076 0.9077979922294617 -0.14988400042057037
          -0.4951449930667877 0.868395984172821 -0.026822999119758606 -0.7100020051002502 0.696382999420166 -0.10463400185108185
          -0.6936150193214417 0.670412003993988 0.26352399587631226 -0.7397249937057495 0.5048109889030457 0.44494199752807617
          -0.9263219833374023 0.28828001022338867 -0.24253199994564056 -0.3140369951725006 -0.8516650199890137 -0.41958099603652954
          -0.040355000644922256 -0.9990969896316528 -0.013271999545395374 0.32177799940109253 -0.8098750114440918 0.4904710054397583
          -0.5027509927749634 0.8159329891204834 0.2854729890823364 -0.7744730114936829 0.60903000831604 0.17109699547290802
          -0.8910580277442932 0.4010089933872223 0.21262000501155853 -0.9177299737930298 0.3874039947986603 0.08769699931144714
          -0.9751819968223572 -0.21092000603675842 0.06732399761676788 -0.8410000205039978 -0.4781630039215088 -0.25313800573349
          0.7653509974479675 0.540582001209259 0.34929800033569336 -0.23613500595092773 0.8503119945526123 0.4703289866447449
          0.12712499499320984 0.09219799935817719 -0.9875919818878174 0.422991007566452 0.45593398809432983 -0.7830730080604553
          -0.3195889890193939 -0.28425300121307373 -0.9039149880409241 -0.592631995677948 -0.43725699186325073 -0.6764569878578186
          0.5030500292778015 0.6822969913482666 -0.5304819941520691 0.6515420079231262 0.7118740081787109 -0.2621619999408722
          0.6020020246505737 -0.40445199608802795 0.6884850263595581 0.6885110139846802 0.7053899765014648 -0.16845400631427765
          0.9082340002059937 0.4031490087509155 0.11216799914836884 -0.8801109790802002 0.3559580147266388 -0.3141619861125946
          0.5869190096855164 0.7716060280799866 -0.24525600671768188 0.5974029898643494 0.3567500114440918 -0.7182199954986572
          0.06300400197505951 -0.12697400152683258 -0.9899029731750488 -0.3404270112514496 -0.2465450018644333 -0.9073730111122131
          -0.8525329828262329 0.08421599864959717 -0.5158439874649048 -0.6496760249137878 -0.24994200468063354 -0.7179489731788635
          -0.9728890061378479 0.03958600014448166 -0.22786100208759308 -0.9317240118980408 0.1636890023946762 -0.3241859972476959
          -0.9589580297470093 -0.017551999539136887 -0.2830030024051666 -0.19165100157260895 0.4324589967727661 -0.8810499906539917
          0.2968379855155945 0.12817500531673431 -0.9462869763374329 0.4397749900817871 0.08613599836826324 -0.8939679861068726
          0.39044201374053955 0.12797300517559052 -0.9116899967193604 0.485852986574173 0.15282399952411652 -0.8605759739875793
          0.2956880033016205 0.3270840048789978 -0.8975440263748169 0.5006330013275146 0.2535940110683441 -0.8276820182800293
          0.35521799325942993 0.10685800015926361 -0.9286559820175171 0.1739010065793991 0.06192399933934212 -0.9828140139579773
          0.868399977684021 -0.08410599827766418 0.4886789917945862 0.9536970257759094 0.14893099665641785 0.2613080143928528
          0.9310629963874817 0.26754799485206604 -0.2480739951133728 0.5277460217475891 0.1783750057220459 -0.8304619789123535
          0.662194013595581 -0.20559599995613098 0.7205759882926941 -0.4680800139904022 -0.8122919797897339 -0.34797000885009766
          -0.3541949987411499 -0.9297590255737305 -0.10046999901533127 -0.032301001250743866 -0.9710400104522705 0.23672200739383698
          0.6966599822044373 -0.6013339757919312 0.3912310004234314 0.6178039908409119 -0.39787501096725464 0.6782429814338684
          0.6618260145187378 -0.5636600255966187 0.4942399859428406 0.7243679761886597 -0.672465980052948 0.1519249975681305
          0.555042028427124 -0.2833560109138489 0.7820730209350586 0.6102709770202637 -0.19515100121498108 0.7677800059318542
          0.8781780004501343 -0.472353994846344 -0.07540299743413925 0.88783198595047 -0.35719799995422363 0.2901090085506439
          0.8917779922485352 -0.44622400403022766 -0.07494299858808517 0.875901997089386 -0.4745129942893982 -0.08736900240182877
          0.8629980087280273 -0.48530301451683044 -0.14041300117969513 0.9016029834747314 -0.3917030096054077 0.18352100253105164
          0.7802219986915588 -0.27325698733329773 0.5626590251922607 0.702148973941803 -0.6471689939498901 0.2969149947166443
          0.6271860003471375 -0.39817899465560913 0.6693969964981079 0.05756299942731857 -0.26302701234817505 0.9630699753761292
          0.1447339951992035 -0.41711699962615967 0.897255003452301 0.10657499730587006 -0.3657349944114685 0.9245970249176025
          -0.5647119879722595 -0.3540160059928894 0.7455009818077087 -0.457506000995636 -0.38115599751472473 0.8033729791641235
          0.5277690291404724 -0.35374200344085693 0.7722219824790955 0.824629008769989 -0.5650489926338196 0.026561999693512917
          0.8542860150337219 -0.5191199779510498 0.026643000543117523 -0.017033999785780907 -0.5398399829864502 -0.8415949940681458
          -0.6265339851379395 0.03141000121831894 -0.7787610292434692 -0.2400130033493042 -0.29410499334335327 -0.9251459836959839
          -0.2668150067329407 -0.17343400418758392 -0.9480140209197998 0.506384015083313 -0.5587610006332397 -0.656781017780304
          -0.3719640076160431 -0.32573801279067993 -0.8692160248756409 0.6313199996948242 -0.7525910139083862 -0.18719500303268433
          0.16465400159358978 -0.6832230091094971 -0.711404025554657 -0.06499800086021423 0.1702899932861328 0.9832479953765869
          -0.9216169714927673 0.20180299878120422 0.33150699734687805 -0.26656201481819153 0.5644329786300659 0.7812560200691223
          -0.29071998596191406 0.45599499344825745 0.841159999370575 -0.1452540010213852 0.6067330241203308 0.7815219759941101
          0.24188700318336487 0.47122400999069214 0.8481979966163635 0.32144299149513245 0.7426999807357788 0.587427020072937
          0.08979800343513489 0.8282589912414551 0.5531030297279358 0.4825440049171448 0.6414290070533752 0.5964229702949524
          0.24046799540519714 0.9179390072822571 0.3155359923839569 0.031429000198841095 0.949068009853363 0.3135010004043579
          -0.19530899822711945 0.8309969902038574 0.5208629965782166 -0.45291998982429504 0.7564359903335571 0.4718779921531677
          -0.6316779851913452 -0.5476199984550476 -0.5487210154533386 -0.8236910104751587 -0.013282000087201595 -0.5668839812278748
          -0.8073430061340332 0.10398100316524506 -0.580847978591919 0.28089600801467896 -0.7617440223693848 0.5838180184364319
          -0.8906940221786499 0.1922760009765625 -0.41193899512290955 -0.9548490047454834 0.04562399908900261 -0.2935670018196106
          -0.991150975227356 -0.013593999668955803 -0.1320369988679886 -0.9932600259780884 0.11467000097036362 0.016916999593377113
          -0.5094220042228699 -0.8513439893722534 -0.1253100037574768 0.00798999983817339 -0.9619939923286438 -0.27295199036598206
          0.9885849952697754 0.15000200271606445 -0.014113999903202057 0.7965480089187622 0.07592999935150146 0.5997880101203918
          0.4323810040950775 0.3436110019683838 0.83365398645401 -0.8597710132598877 0.39596399664878845 -0.32249999046325684
          -0.8398299813270569 -0.017481999471783638 -0.542568027973175 -0.4419640004634857 0.8865839838981628 0.13651500642299652
          0.1880040019750595 0.5360379815101624 0.8229929804801941 0.6254839897155762 0.19766099750995636 -0.7547839879989624
          0.2632420063018799 -0.14695000648498535 -0.9534720182418823 0.7239540219306946 0.44194701313972473 -0.5296919941902161
          -0.3493109941482544 -0.7012749910354614 -0.6214460134506226 0.13263100385665894 -0.5163300037384033 -0.8460569977760315