<?xml version="1.0"?>
<VTKFile type="PolyData" version="0.1" byte_order="LittleEndian" header_type="UInt32" compressor="vtkZLibDataCompressor">
  <PolyData>
    <Piece NumberOfPoints="770" NumberOfVerts="0" NumberOfLines="0" NumberOfStrips="0" NumberOfPolys="1550">
      <PointData Normals="Normals">
        <DataArray type="Float32" Name="Normals" NumberOfComponents="3" format="ascii" RangeMin="0.9999992713880858" RangeMax="1.0000007514847464">
          -0.3211820125579834 -0.8622900247573853 -0.3915340006351471 -0.8833420276641846 -0.3872449994087219 0.26409900188446045
          -0.7258729934692383 -0.4897629916667938 -0.48295000195503235 -0.6881060004234314 -0.5440919995307922 0.48007699847221375
          0.3984459936618805 -0.9043750166893005 0.15279600024223328 -0.9157350063323975 -0.19136999547481537 0.3532809913158417
          0.23415599763393402 -0.4990150034427643 -0.8343589901924133 0.5214229822158813 -0.6242470145225525 -0.5817509889602661
          -0.958886981010437 -0.0526840016245842 0.2788560092449188 -0.9656839966773987 0.14255699515342712 0.21709999442100525
          0.3315899968147278 -0.30818501114845276 -0.8916670083999634 -0.8749729990959167 -0.27935099601745605 -0.395455002784729
          -0.45569899678230286 -0.37439900636672974 0.8075670003890991 -0.8185319900512695 -0.12166000157594681 0.5614309906959534
          0.703918993473053 -0.48675400018692017 0.517270028591156 0.870136022567749 -0.3818170130252838 -0.3115760087966919
          -0.917123019695282 0.01895200088620186 0.39815399050712585 0.8959159851074219 -0.18831999599933624 -0.40233099460601807
          0.8017640113830566 -0.10451100021600723 -0.5884310007095337 -0.9431059956550598 0.27330800890922546 0.1893479973077774
          -0.9251959919929504 0.2827489972114563 0.25311100482940674 -0.9284020066261292 0.12968599796295166 0.34821200370788574
          0.8627039790153503 -0.0007910000276751816 -0.5057089924812317 0.8821030259132385 -0.05518199875950813 -0.46781399846076965
          0.26617300510406494 -0.259660005569458 -0.928292989730835 -0.9824900031089783 -0.13116499781608582 -0.13232100009918213
          -0.25891199707984924 -0.2797980010509491 0.9244880080223083 -0.7648630142211914 -0.12106099724769592 0.6327160000801086
          -0.9267989993095398 0.07105699926614761 0.36877501010894775 0.9631350040435791 -0.1238899976015091 -0.23879200220108032
          0.7146810293197632 -0.35090500116348267 0.605059027671814 -0.9476709961891174 0.28633901476860046 0.14117400348186493
          0.9510520100593567 -0.11252500116825104 -0.28781500458717346 -0.9309899806976318 0.34490200877189636 0.11958599835634232
          -0.8911190032958984 0.09797800332307816 0.4430660009384155 -0.9015340209007263 0.1581909954547882 0.402756005525589
          -0.8828200101852417 0.055358998477458954 0.4664379954338074 0.9028599858283997 -0.0448249988257885 -0.427592009305954
          0.9386940002441406 -0.12210100144147873 -0.32240501046180725 0.8576560020446777 0.004095999989658594 -0.5142080187797546
          0.10539200156927109 -0.20721599459648132 -0.9726020097732544 -0.959837019443512 -0.0267340000718832 0.27928099036216736
          -0.9974409937858582 -0.02145799994468689 -0.06819099932909012 -0.25249698758125305 -0.3153989911079407 0.9147509932518005
          -0.7828670144081116 0.012426000088453293 0.6220660209655762 -0.9238380193710327 0.26909899711608887 0.27223101258277893
          -0.8961660265922546 0.4335390031337738 0.09450200200080872 0.9649839997291565 -0.2619650065898895 -0.013457000255584717
          0.510837972164154 -0.47449401021003723 0.716867983341217 -0.8857520222663879 0.43172401189804077 0.17046600580215454
          0.9381530284881592 -0.24823200702667236 -0.241347998380661 -0.8564469814300537 0.2633109986782074 0.44403401017189026
          -0.8609510064125061 0.07972899824380875 0.5024009943008423 -0.8393830060958862 0.12577100098133087 0.5287879705429077
          -0.7828220129013062 0.1982489973306656 0.5898200273513794 -0.8891440033912659 0.06887900084257126 0.45241498947143555
          0.8721169829368591 -0.006849000230431557 -0.4892500042915344 0.8697329759597778 -0.10131199657917023 -0.48301300406455994
          0.9068440198898315 -0.1815890073776245 -0.3803429901599884 0.8657479882240295 -0.07644899934530258 -0.49460700154304504
          0.017412999644875526 -0.09031900018453598 -0.995760977268219 -0.8716070055961609 0.14717599749565125 0.46759000420570374
          -0.9947159886360168 0.10070499777793884 -0.019979000091552734 -0.0071680000983178616 -0.38022899627685547 0.9248650074005127
          -0.6714000105857849 0.17115700244903564 0.7210599780082703 -0.8183680176734924 0.4739370048046112 0.3250510096549988
          -0.8015000224113464 0.5877310037612915 0.11031699925661087 -0.7876710295677185 0.569167971611023 0.23584400117397308
          0.7577549815177917 -0.4882490038871765 0.43292200565338135 0.44056200981140137 -0.604915976524353 0.6633110046386719
          -0.7490220069885254 0.37255799770355225 0.5478739738464355 0.9162769913673401 -0.39651501178741455 -0.056682001799345016
          -0.6991919875144958 0.2638239860534668 0.6644759774208069 -0.8460100293159485 0.21098999679088593 0.4896419942378998
          -0.8150830268859863 0.249099999666214 0.5230579972267151 -0.7494980096817017 0.29465198516845703 0.5928170084953308
          -0.6970980167388916 0.3151380121707916 0.6440050005912781 0.881862998008728 -0.09252999722957611 -0.46233800053596497
          0.8423159718513489 -0.03689099848270416 -0.5377200245857239 0.798596978187561 -0.16666099429130554 -0.5783309936523438
          0.8831089735031128 -0.31237301230430603 -0.35005998611450195 0.8333399891853333 -0.12919199466705322 -0.537451982498169
          0.22512400150299072 0.00938200019299984 -0.9742850065231323 -0.7441080212593079 0.172543004155159 0.6453930139541626
          -0.8808860182762146 0.12374100089073181 0.4568670094013214 -0.7755770087242126 0.11495299637317657 0.6206979751586914
          -0.8828719854354858 0.11985299736261368 0.45406201481819153 -0.9902480244636536 0.1181429997086525 0.07382600009441376
          0.05715399980545044 -0.33580800890922546 0.9401950240135193 -0.4743019938468933 0.20496700704097748 0.8561689853668213
          -0.7039539813995361 0.5602859854698181 0.43649598956108093 -0.7074859738349915 0.6991339921951294 0.1033179983496666
          -0.6992939710617065 0.6806550025939941 0.21839599311351776 -0.6239280104637146 0.44013699889183044 0.6457509994506836
          0.6332110166549683 -0.6342499852180481 0.443589985370636 0.46452298760414124 -0.6692500114440918 0.5799329876899719
          -0.5623760223388672 0.28391900658607483 0.7766109704971313 0.767005980014801 -0.5957409739494324 0.23831899464130402
          -0.6132869720458984 0.31437501311302185 0.7246019840240479 -0.7632020115852356 0.18940399587154388 0.6177769899368286
          -0.7388240098953247 0.1372150033712387 0.6597809791564941 -0.7456889748573303 0.07316000014543533 0.6622650027275085
          -0.7555990219116211 0.05049800127744675 0.6530849933624268 0.8429309725761414 -0.21056300401687622 -0.4951060116291046
          0.8589059710502625 -0.11922399699687958 -0.49806201457977295 0.7559900283813477 -0.06341700255870819 -0.6515039801597595
          0.6635540127754211 -0.2533000111579895 -0.7039430141448975 0.8298109769821167 -0.5320299863815308 -0.16839799284934998
          0.7229650020599365 -0.14650100469589233 -0.6751729846000671 -0.9906290173530579 0.10631699860095978 -0.08573299646377563
          -0.12870599329471588 0.07755199819803238 -0.9886459708213806 -0.5642430186271667 -0.1460379958152771 0.8125900030136108
          -0.6349520087242126 -0.2781200110912323 0.720753014087677 -0.6722180247306824 -0.051222000271081924 0.7385789752006531
          0.0903870016336441 -0.30472201108932495 0.9481430053710938 -0.27509498596191406 0.14052900671958923 0.9510909914970398
          -0.6242409944534302 0.5801209807395935 0.5232419967651367 -0.6497430205345154 0.7484300136566162 0.1329910010099411
          -0.6826249957084656 0.6970090270042419 0.21954800188541412 -0.6016560196876526 0.45412299036979675 0.6571009755134583
          -0.46275100111961365 0.2779240012168884 0.8417959809303284 0.6870819926261902 -0.7122899889945984 0.14339500665664673
          0.47509801387786865 -0.7235010266304016 0.5008270144462585 -0.5226560235023499 0.26112300157546997 0.8115699887275696
          0.7241680026054382 -0.6635280251502991 0.1879120022058487 -0.7357959747314453 0.06817799806594849 0.6737629771232605
          -0.5841420292854309 -0.4688909947872162 0.662509024143219 -0.5462759733200073 -0.556859016418457 0.6256909966468811
          -0.6607080101966858 -0.4889949858188629 0.5695160031318665 -0.7322120070457458 -0.37033599615097046 0.5715910196304321
          0.7607120275497437 -0.21703100204467773 -0.6117309927940369 0.8092979788780212 -0.2698360085487366 -0.5217530131340027
          0.7829620242118835 -0.19604800641536713 -0.5903689861297607 0.5629770159721375 -0.14392900466918945 -0.8138440251350403
          0.48506900668144226 -0.280674010515213 -0.8282089829444885 0.7459189891815186 -0.6208620071411133 -0.24111300706863403
          0.6625940203666687 -0.24228699505329132 -0.7087069749832153 -0.6215360164642334 -0.22649100422859192 0.7499300241470337
          -0.9742429852485657 0.10243300348520279 0.20089399814605713 -0.8946179747581482 0.28157201409339905 -0.34695300459861755
          -0.2306309938430786 0.14789199829101562 -0.9617360234260559 -0.4423219859600067 -0.5154179930686951 0.7339590191841125
          -0.27882999181747437 -0.8066580295562744 0.521111011505127 -0.10474800318479538 -0.9345160126686096 0.34015700221061707
          0.011977000162005424 -0.2912830114364624 0.9565619826316833 -0.31004899740219116 0.12183500081300735 0.9428820013999939
          -0.6163250207901001 0.6247190237045288 0.47944700717926025 -0.6645280122756958 0.7434700131416321 0.07519800215959549
          -0.6617329716682434 0.6923760175704956 0.2876169979572296 -0.5906530022621155 0.4444679915904999 0.6734820008277893
          -0.49817100167274475 0.2926290035247803 0.8162069916725159 -0.48572298884391785 0.19828400015830994 0.8513259887695312
          0.6605029702186584 -0.7485209703445435 -0.05874599888920784 0.4275459945201874 -0.7739149928092957 0.467182993888855
          -0.7161110043525696 0.04129299893975258 0.6967639923095703 0.6345949769020081 -0.7622010111808777 0.12782800197601318
          -0.8068230152130127 -0.2578270137310028 0.5315650105476379 -0.004838999826461077 -0.944474995136261 0.32854700088500977
          -0.18398800492286682 -0.8739050030708313 0.4499320089817047 -0.5150970220565796 -0.6781839728355408 0.5241590142250061
          -0.6932989954948425 -0.4975380003452301 0.5213369727134705 0.6796200275421143 -0.32578301429748535 -0.6572539806365967
          0.7557039856910706 -0.2746489942073822 -0.5945420265197754 0.7505069971084595 -0.3134480118751526 -0.5817980170249939
          0.641086995601654 -0.24421599507331848 -0.7275760173797607 0.3761819899082184 -0.10029900074005127 -0.9211009740829468
          0.4153920114040375 -0.23167100548744202 -0.8796470165252686 0.6434069871902466 -0.699180006980896 -0.31172800064086914
          0.5576310157775879 -0.3962169885635376 -0.7294250130653381 -0.5057950019836426 -0.6901490092277527 0.5175570249557495
          -0.7641689777374268 -0.30396899580955505 0.568901002407074 -0.8848869800567627 0.3974269926548004 0.24295400083065033
          -0.7073869705200195 0.6800069808959961 0.1928579956293106 -0.7434139847755432 0.6687870025634766 0.007666000165045261
          -0.8521929979324341 0.5062620043754578 -0.13215799629688263 -0.8112030029296875 0.5069689750671387 0.2914310097694397
          -0.8279269933700562 0.5608310103416443 0.002219999907538295 0.1105939969420433 0.0651789978146553 -0.9917259812355042
          -0.26344799995422363 -0.9388880133628845 0.22154900431632996 0.001673000049777329 -0.9875479936599731 0.15730899572372437
          0.05090999975800514 -0.9367809891700745 0.34619200229644775 -0.1303970068693161 -0.31426700949668884 0.9403370022773743
          -0.32252800464630127 0.07084900140762329 0.9439049959182739 -0.5854690074920654 0.6074399948120117 0.5368829965591431
          -0.655489981174469 0.7485349774360657 0.10014300048351288 -0.6900429725646973 0.673816978931427 0.2642180025577545
          -0.619350016117096 0.46424400806427 0.6331530213356018 -0.5127080082893372 0.29381999373435974 0.8067219853401184
          -0.5031110048294067 0.1468770056962967 0.8516499996185303 -0.6520609855651855 -0.08589299768209457 0.7532860040664673
          0.6338319778442383 -0.7637739777565002 -0.12209299951791763 0.38624200224876404 -0.8144729733467102 0.4329560101032257
          -0.8166499733924866 -0.26434800028800964 0.5130329728126526 0.573511004447937 -0.8058580160140991 0.1472339928150177
          -0.8285880088806152 -0.34340500831604004 0.44216999411582947 -0.00821600016206503 -0.8079990148544312 0.5891259908676147
          -0.33799999952316284 -0.6674960255622864 0.6634799838066101 -0.5568600296974182 -0.5757409930229187 0.5986899733543396
          -0.7551190257072449 -0.37375199794769287 0.5386130213737488 0.5456809997558594 -0.5373820066452026 -0.643002986907959
          0.6686980128288269 -0.3790520131587982 -0.6396579742431641 0.7397300004959106 -0.3136560022830963 -0.5953310132026672
          0.6988310217857361 -0.31967100501060486 -0.6398789882659912 0.4972839951515198 -0.18443599343299866 -0.8477569818496704
          0.30395299196243286 -0.03370799869298935 -0.9520900249481201 0.4039570093154907 -0.23307199776172638 -0.8845880031585693
          0.6546869874000549 -0.6891030073165894 -0.31068000197410583 0.43141698837280273 -0.3456209897994995 -0.8333219885826111
          -0.8581590056419373 -0.277754008769989 0.4317589998245239 -0.49567800760269165 -0.8484320044517517 0.18564899265766144
          -0.6519669890403748 0.735014021396637 0.18626199662685394 -0.7128499746322632 0.6729779839515686 0.1973479986190796
          -0.6369529962539673 0.7166100144386292 0.284184992313385 -0.5862410068511963 0.6253989934921265 0.514972984790802
          -0.5571960210800171 0.47415998578071594 0.6816930174827576 -0.5682860016822815 0.35280799865722656 0.7433559894561768
          -0.7361890077590942 0.6711829900741577 -0.0868310034275055 0.14191700518131256 0.07036799937486649 -0.9873740077018738
          -0.7514489889144897 -0.5956069827079773 0.2838599979877472 -0.6230700016021729 -0.5073279738426208 0.5953159928321838
          -0.5246250033378601 -0.24478299915790558 0.8153830170631409 -0.09133400022983551 -0.36805498600006104 0.9253069758415222
          -0.3024519979953766 0.020205000415444374 0.9529500007629395 -0.5334470272064209 0.5573149919509888 0.6362659931182861
          -0.6538370251655579 0.7312260270118713 0.19443699717521667 -0.7127879858016968 0.6395630240440369 0.28791001439094543
          -0.6663320064544678 0.45115700364112854 0.5936819911003113 -0.5528119802474976 0.31401199102401733 0.7718780040740967
          -0.5145829916000366 0.09928800165653229 0.8516719937324524 -0.6324899792671204 -0.16597099602222443 0.7565780282020569
          -0.7006769776344299 -0.3829059898853302 0.6020259857177734 0.6277199983596802 -0.763933002948761 -0.14957700669765472
          0.4215390086174011 -0.8544549942016602 0.3036620020866394 -0.7514140009880066 -0.40897300839424133 0.5178020000457764
          0.6227589845657349 -0.7689430117607117 0.14456400275230408 -0.7610719799995422 -0.31825199723243713 0.5652310252189636
          -0.6582790017127991 0.04394799843430519 0.7514899969100952 -0.6468350291252136 -0.23545199632644653 0.7253739833831787
          -0.6824889779090881 -0.3826040029525757 0.6227539777755737 -0.7228040099143982 -0.29888099431991577 0.6230769753456116
          0.3653090000152588 -0.5165029764175415 -0.7744510173797607 0.42833301424980164 -0.6320499777793884 -0.6457890272140503
          0.6335870027542114 -0.4414139986038208 -0.6353899836540222 0.690779983997345 -0.3506380021572113 -0.6323570013046265
          0.5994390249252319 -0.3106499910354614 -0.7376790046691895 0.4131830036640167 -0.17697200179100037 -0.8932870030403137
          0.2500639855861664 -0.03755500167608261 -0.9675009846687317 0.32119399309158325 -0.20570799708366394 -0.9244009852409363
          0.6597920060157776 -0.6626710295677185 -0.3543179929256439 0.40132299065589905 -0.21705199778079987 -0.8898469805717468
          -0.933929979801178 0.0709419995546341 0.3503440022468567 -0.9152050018310547 0.3761819899082184 0.14452500641345978
          -0.5420230031013489 0.8254709839820862 0.15751199424266815 -0.6497489809989929 0.7534419894218445 0.10075400024652481
          -0.47228899598121643 0.8419209718704224 0.2609829902648926 -0.4814299941062927 0.7421619892120361 0.46628400683403015
          -0.5620740056037903 0.585453987121582 0.5842229723930359 -0.4273410141468048 0.5037400126457214 0.7507500052452087
          -0.4586910009384155 0.3351399898529053 0.8229730129241943 -0.5796579718589783 0.4696289896965027 0.6659169793128967
          -0.7005169987678528 0.6964880228042603 0.15550099313259125 -0.10210999846458435 0.7163670063018799 -0.6902109980583191
          -0.8308339715003967 0.4520829916000366 0.32455700635910034 -0.7225880026817322 0.580020010471344 0.37609100341796875
          -0.5625380277633667 0.8101239800453186 0.16507600247859955 -0.1852090060710907 -0.3761120140552521 0.9078750014305115
          -0.3380739986896515 0.0704139992594719 0.9384819865226746 -0.49063101410865784 0.5477349758148193 0.6776930093765259
          -0.5881310105323792 0.7053750157356262 0.39566200971603394 -0.7252600193023682 0.5986350178718567 0.34004899859428406
          -0.7368180155754089 0.4147149920463562 0.5339580178260803 -0.6916720271110535 0.3169519901275635 0.6489459872245789
          -0.5996800065040588 0.10778699815273285 0.7929480075836182 -0.5050489902496338 -0.2461239993572235 0.827252984046936
          -0.48444700241088867 -0.43362700939178467 0.759788990020752 -0.41147899627685547 -0.5802590250968933 0.7028409838676453
          0.6591879725456238 -0.7273719906806946 -0.19078899919986725 0.3597559928894043 -0.8777440190315247 0.31644999980926514
          -0.3999539911746979 -0.5221740007400513 0.7532399892807007 0.5999889969825745 -0.7965700030326843 0.07408600300550461
          -0.38122400641441345 -0.46583300828933716 0.7985410094261169 -0.6191669702529907 0.6481530070304871 0.4433180093765259
          -0.7941219806671143 0.20395399630069733 0.5725150108337402 -0.7181980013847351 -0.3401150107383728 0.6070529818534851
          -0.5089750289916992 -0.49394500255584717 0.7049559950828552 0.4509660005569458 -0.2470950037240982 -0.8576560020446777
          0.32454800605773926 -0.6249480247497559 -0.7100059986114502 0.3959310054779053 -0.689769983291626 -0.6061819791793823
          0.5919280052185059 -0.4866740107536316 -0.6424710154533386 0.5904660224914551 -0.384537011384964 -0.7095639705657959
          0.5093899965286255 -0.3075670003890991 -0.8036940097808838 0.36559098958969116 -0.1690399944782257 -0.9152969717979431
          0.22090399265289307 -0.020774999633431435 -0.9750739932060242 0.3518249988555908 -0.17706799507141113 -0.9191660284996033
          0.6068869829177856 -0.6652680039405823 -0.43486401438713074 0.44814300537109375 0.6477689743041992 -0.616087019443512
          -0.5677250027656555 0.806643009185791 -0.16436399519443512 -0.545527994632721 0.8330990076065063 -0.09135500341653824
          -0.3391759991645813 0.9405620098114014 0.01738700084388256 -0.11673100292682648 0.9508079886436462 -0.28694599866867065
          -0.23498700559139252 0.951740026473999 0.19741499423980713 -0.32085201144218445 0.8225409984588623 0.46955299377441406
          -0.33796799182891846 0.6513890027999878 0.679315984249115 -0.3697519898414612 0.24213199317455292 0.897026002407074
          -0.31014901399612427 0.349263995885849 0.884207010269165 -0.44758400321006775 0.25538501143455505 0.8569989800453186
          -0.20644700527191162 0.6178590059280396 0.7587019801139832 -0.322407990694046 0.9377430081367493 0.12919199466705322
          -0.4841960072517395 0.8738909959793091 0.043234001845121384 -0.1793999969959259 0.9464390277862549 -0.26845699548721313
          -0.05372700095176697 0.985837996006012 -0.15886099636554718 -0.1712999939918518 -0.37250199913978577 0.9120849967002869
          -0.3890109956264496 0.01874700002372265 0.9210420250892639 -0.6041520237922668 0.5244690179824829 0.5999429821968079
          -0.6388429999351501 0.6328330039978027 0.43749600648880005 -0.7267500162124634 0.5051980018615723 0.46541300415992737
          -0.7524440288543701 0.3494639992713928 0.5583029985427856 -0.7433689832687378 0.2723509967327118 0.6109229922294617
          -0.7345209717750549 0.19490599632263184 0.6499919891357422 -0.6143119931221008 -0.024366000667214394 0.788686990737915
          -0.3807159960269928 -0.3176499903202057 0.8684200048446655 -0.2992910146713257 -0.5188189744949341 0.8007820248603821
          -0.1787319928407669 -0.592510998249054 0.7854840159416199 0.5223379731178284 -0.8096969723701477 -0.26749399304389954
          0.26683899760246277 -0.9423660039901733 0.2018509954214096 0.01607399992644787 -0.4238179922103882 0.9056050181388855
          0.5246390104293823 -0.8504080176353455 -0.039500001817941666 0.42219600081443787 -0.47473400831222534 0.772255003452301
          0.138154998421669 0.802370011806488 -0.5806170105934143 -0.7077680230140686 -0.2781270146369934 0.6493920087814331
          -0.6423439979553223 0.5589330196380615 0.5243939757347107 -0.12178800255060196 0.900422990322113 -0.417618989944458
          -0.38135799765586853 -0.6001570224761963 0.7031199932098389 0.7891420125961304 0.5716490149497986 -0.22466200590133667
          0.5208520293235779 -0.31771498918533325 -0.7923200130462646 0.35071098804473877 -0.6960480213165283 -0.6265130043029785
          0.3815290033817291 -0.6985700130462646 -0.6053400039672852 0.5504879951477051 -0.48587900400161743 -0.6788849830627441
          0.541064977645874 -0.3617999851703644 -0.759177029132843 0.4524730145931244 -0.2898469865322113 -0.8433600068092346
          0.31571799516677856 -0.15111500024795532 -0.9367420077323914 0.2068990021944046 -0.009700999595224857 -0.9783139824867249
          0.4076080024242401 -0.2588930130004883 -0.8756890296936035 0.610164999961853 -0.6710169911384583 -0.4212299883365631
          0.052046999335289 0.851622998714447 -0.5215650200843811 0.10761400312185287 0.8736600279808044 -0.47448599338531494
          0.07485300302505493 0.9912970066070557 -0.10829000174999237 0.37422698736190796 0.8417569994926453 -0.38909900188446045
          0.06896299868822098 0.9822379946708679 0.17450599372386932 -0.14530399441719055 0.8288869857788086 0.5402160286903381
          -0.29359498620033264 0.5526909828186035 0.7799580097198486 -0.012539000250399113 0.5138810276985168 0.8577700257301331
          0.10756099969148636 0.44092100858688354 0.891077995300293 0.16161799430847168 0.5501109957695007 0.8193029761314392
          0.23240500688552856 0.8048760294914246 -0.5460429787635803 0.40566301345825195 0.7701370120048523 -0.49226701259613037
          0.5145509839057922 0.5145739912986755 -0.6858940124511719 -0.151077002286911 -0.36864399909973145 0.9172120094299316
          -0.4983150064945221 0.026204999536275864 0.866599977016449 -0.7194629907608032 0.42497798800468445 0.5493329763412476
          -0.7725380063056946 0.5368679761886597 0.3390539884567261 -0.7697629928588867 0.4397070109844208 0.46273401379585266
          -0.7528570294380188 0.35918399691581726 0.5515369772911072 -0.7249029874801636 0.3515219986438751 0.5924090147018433
          -0.6530320048332214 0.20632000267505646 0.7286850214004517 -0.647957980632782 0.10628899931907654 0.7542240023612976
          -0.5671730041503906 -0.1319109946489334 0.812965989112854 -0.4402639865875244 -0.4080300033092499 0.7997999787330627
          -0.3355819880962372 -0.5188270211219788 0.7862589955329895 -0.03359299898147583 -0.17893299460411072 0.9832879900932312
          0.45423200726509094 -0.8121070265769958 -0.3662720024585724 0.4610530138015747 -0.8614320158958435 0.21299000084400177
          0.5081200003623962 0.5949990153312683 0.6227279901504517 0.5190460085868835 -0.8246060013771057 -0.22498199343681335
          0.6932979822158813 0.6909970045089722 0.20459899306297302 0.8771290183067322 -0.47409799695014954 0.07665500044822693
          0.3436970114707947 -0.7488170266151428 0.5666970014572144 0.9917880296707153 0.09080100059509277 -0.0900690034031868
          0.49148499965667725 0.3867500126361847 -0.7802990078926086 0.4528760015964508 0.303600013256073 -0.8382899761199951
          0.4904269874095917 0.3110809922218323 -0.8140699863433838 -0.7986149787902832 -0.19176200032234192 0.5704749822616577
          -0.6798710227012634 0.5279110074043274 0.5090039968490601 -0.032558999955654144 0.9005209803581238 -0.43359100818634033
          0.3232629895210266 0.0752519965171814 -0.9433130025863647 -0.36324501037597656 -0.7631459832191467 0.5344730019569397
          0.8910300135612488 0.4157240092754364 -0.18231500685214996 0.4018869996070862 -0.3914090096950531 -0.8278200030326843
          0.2047719955444336 -0.7418959736824036 -0.6384819746017456 0.3208000063896179 -0.7246000170707703 -0.6099519729614258
          0.4860219955444336 -0.49785199761390686 -0.718280017375946 0.484824001789093 -0.35253599286079407 -0.8004149794578552
          0.3600330054759979 -0.2774659991264343 -0.8907240033149719 0.23971499502658844 -0.1687059998512268 -0.956072986125946
          0.21225899457931519 -0.09923399984836578 -0.9721620082855225 0.4260669946670532 -0.5348719954490662 -0.7296440005302429
          0.5273920297622681 -0.7604619860649109 -0.37888801097869873 0.5096330046653748 0.6803699731826782 -0.5266600251197815
          0.5719249844551086 0.5895180106163025 -0.5704129934310913 0.2838200032711029 0.9573119878768921 -0.05477299913764
          0.36733299493789673 0.8972390294075012 -0.24500800669193268 -0.017369000241160393 0.9145249724388123 0.40415701270103455
          -0.2737770080566406 0.7054979801177979 0.6536960005760193 0.08567900210618973 0.7628859877586365 0.6408309936523438
          0.8814210295677185 0.3483029901981354 -0.31903499364852905 0.8276389837265015 0.3213779926300049 -0.46014100313186646
          0.5395479798316956 0.5484499931335449 -0.6388189792633057 0.5075939893722534 0.5757520198822021 -0.6409819722175598
          0.4155449867248535 0.5802419781684875 -0.7004579901695251 0.06123499944806099 -0.5039880275726318 0.861536979675293
          -0.5033509731292725 -0.08312500268220901 0.860073983669281 -0.7698529958724976 0.29897600412368774 0.5638620257377625
          -0.8323969841003418 0.47569501399993896 0.28430598974227905 -0.8391150236129761 0.4641219973564148 0.28368499875068665
          -0.814499020576477 0.3889769911766052 0.43045198917388916 -0.7963359951972961 0.4124029874801636 0.4424619972705841
          -0.7794240117073059 0.275518000125885 0.5626609921455383 -0.7159960269927979 0.010576999746263027 0.6980239748954773
          -0.7126240134239197 -0.04102800041437149 0.700344979763031 -0.6547600030899048 -0.21726299822330475 0.72393798828125
          -0.5510219931602478 -0.2697339951992035 0.7896950244903564 -0.3432910144329071 -0.07210200279951096 0.9364569783210754
          0.10697899758815765 0.7879430055618286 0.6063839793205261 0.4859299957752228 -0.7728509902954102 -0.40813499689102173
          0.3904950022697449 -0.8772100210189819 0.27931299805641174 0.39207300543785095 -0.8706120252609253 -0.29717499017715454
          0.11626899987459183 0.9837949872016907 0.1364849954843521 -0.1382399946451187 0.9888430237770081 0.05548499897122383
          0.5241169929504395 0.8515089750289917 -0.015324000269174576 0.7083839774131775 -0.6245599985122681 -0.32881098985671997
          0.6894810199737549 0.06325799971818924 -0.7215359807014465 0.4103870093822479 -0.8888729810714722 0.20368599891662598
          0.6325669884681702 0.26154500246047974 -0.7290089726448059 0.7458249926567078 0.5279750227928162 -0.4061860144138336
          0.6263920068740845 0.39226898550987244 -0.6736149787902832 0.4849880039691925 0.6131790280342102 -0.623537003993988
          0.542248010635376 -0.24786099791526794 -0.8028280138969421 -0.8068720102310181 -0.23803099989891052 0.5406469702720642
          -0.6416820287704468 0.6265180110931396 0.4424020051956177 -0.1154870018362999 0.9562299847602844 -0.2688629925251007
          0.17581500113010406 0.08837000280618668 -0.9804490208625793 0.36020800471305847 -0.5112469792366028 -0.7803059816360474
          -0.016421999782323837 -0.9547560214996338 0.2969360053539276 0.28532499074935913 -0.4872100055217743 -0.825357973575592
          0.19113300740718842 -0.7866380214691162 -0.5870850086212158 0.2606250047683716 -0.752776026725769 -0.6044849753379822
          0.3719010055065155 -0.5493590235710144 -0.7482609748840332 0.34381499886512756 -0.381072998046875 -0.8582389950752258
          0.2149610072374344 -0.2999170124530792 -0.9294310212135315 0.14648599922657013 -0.23490400612354279 -0.9609169960021973
          0.228303000330925 -0.38026800751686096 -0.8962560296058655 0.19378399848937988 -0.8130769729614258 -0.5489559769630432
          0.24880200624465942 -0.9256899952888489 -0.2849479913711548 0.4315829873085022 0.8794329762458801 -0.2008340060710907
          0.39138999581336975 0.8853139877319336 -0.2510649859905243 0.009227000176906586 0.9725859761238098 0.23236000537872314
          0.04403600096702576 0.971451997756958 0.23311400413513184 -0.2469480037689209 0.7763519883155823 0.5799090266227722
          -0.08115699887275696 0.7811350226402283 0.6190659999847412 0.8294079899787903 0.41944000124931335 -0.3689889907836914