<?xml version="1.0"?>
<VTKFile type="PolyData" version="0.1" byte_order="LittleEndian" header_type="UInt32" compressor="vtkZLibDataCompressor">
  <PolyData>
    <Piece NumberOfPoints="2627" NumberOfVerts="0" NumberOfLines="0" NumberOfStrips="0" NumberOfPolys="5250">
      <PointData Normals="Normals">
        <DataArray type="Float32" Name="Normals" NumberOfComponents="3" format="ascii" RangeMin="0.999999225128827" RangeMax="1.0000007342591073">
          -0.3297179937362671 0.22272899746894836 0.9174299836158752 -0.30931198596954346 0.17322899401187897 0.9350500106811523
          -0.33004099130630493 0.23067200183868408 0.915349006652832 -0.323170006275177 0.11184000223875046 0.9397090077400208
          -0.38943201303482056 0.04132800176739693 0.9201269745826721 -0.3925600051879883 0.272132009267807 0.8785449862480164
          -0.2138800024986267 0.08749599754810333 0.9729340076446533 -0.29182198643684387 0.21815699338912964 0.9312610030174255
          -0.3116219937801361 0.06334199756383896 0.9480929970741272 -0.29354000091552734 0.17530600726604462 0.9397349953651428
          -0.30382800102233887 0.21000300347805023 0.9292939901351929 -0.3367300033569336 0.15787500143051147 0.928272008895874
          -0.39756301045417786 0.10026799887418747 0.9120799899101257 -0.49616000056266785 0.05453300103545189 0.8665170073509216
          -0.3499169945716858 0.09506700187921524 0.9319440126419067 -0.3692440092563629 0.13754799962043762 0.9190970063209534
          -0.47433799505233765 0.04070800170302391 0.8794010281562805 -0.30443599820137024 0.042601000517606735 0.9515799880027771
          -0.17496000230312347 0.033190999180078506 0.9840160012245178 -0.25270500779151917 0.041255999356508255 0.9666630029678345
          -0.26152700185775757 0.2559179961681366 0.930649995803833 -0.2804499864578247 0.07421600073575974 0.9569950103759766
          -0.10234899818897247 0.14056099951267242 0.9847679734230042 -0.31420499086380005 0.3408760130405426 0.8860470056533813
          -0.28239700198173523 0.11831700056791306 0.951973021030426 -0.2671619951725006 0.4200640022754669 0.867277979850769
          -0.2854979932308197 0.15994900465011597 0.9449380040168762 -0.26851600408554077 0.20631000399589539 0.9409229755401611
          -0.3543879985809326 0.33308300375938416 0.8737649917602539 -0.37929099798202515 0.42020300030708313 0.8243589997291565
          -0.42358899116516113 0.010824999772012234 0.9057899713516235 -0.4044089913368225 0.1341859996318817 0.9046810269355774
          -0.5126219987869263 0.07558099925518036 0.8552809953689575 -0.3833580017089844 -0.0627719983458519 0.9214640259742737
          -0.3789750039577484 -0.03592099994421005 0.9247090220451355 -0.4437220096588135 -0.05743899941444397 0.8943219780921936
          -0.3402999937534332 -0.01422099955379963 0.9402089715003967 -0.4295710027217865 -0.008640999905765057 0.9029920101165771
          -0.4087409973144531 0.3164080083370209 0.8560469746589661 -0.46769699454307556 0.13523900508880615 0.8734819889068604
          -0.24487300217151642 0.029830999672412872 0.9690960049629211 -0.40740901231765747 0.107635997235775 0.9068800210952759
          -0.40285199880599976 -0.005235000047832727 0.9152500033378601 -0.22011899948120117 -0.06995400041341782 0.9729620218276978
          -0.38463398814201355 0.15049199759960175 0.9107189774513245 -0.35398799180984497 0.35037100315093994 0.867139995098114
          -0.3432680070400238 -0.07526600360870361 0.9362170100212097 -0.24938100576400757 0.23263199627399445 0.9400479793548584
          -0.26604101061820984 0.4902159869670868 0.8300060033798218 -0.410396009683609 0.5350279808044434 0.738457977771759
          -0.2890720069408417 0.11800900101661682 0.9500060081481934 -0.2997699975967407 0.4808639883995056 0.8239579796791077
          -0.2530199885368347 0.18730199337005615 0.9491569995880127 -0.14402499794960022 0.2180110067129135 0.9652609825134277
          -0.26369601488113403 0.21785500645637512 0.9396820068359375 -0.4137380123138428 0.3626909852027893 0.8350309729576111
          -0.4012469947338104 0.22293299436569214 0.8884270191192627 -0.2630409896373749 0.25879600644111633 0.9294270277023315
          -0.35285699367523193 0.15161600708961487 0.9233120083808899 -0.35410499572753906 0.18458899855613708 0.916808009147644
          -0.6153759956359863 0.12472900003194809 0.7783030271530151 -0.39973700046539307 0.1515679955482483 0.9040120244026184
          -0.5094460248947144 -0.09066600352525711 0.8557130098342896 -0.5558260083198547 0.00865700002759695 0.8312540054321289
          -0.5241640210151672 0.017748000100255013 0.8514320254325867 -0.4700930118560791 0.03443299978971481 0.881945013999939
          -0.3155190050601959 -0.15427100658416748 0.9362949728965759 -0.3865300118923187 0.031091000884771347 0.9217529892921448
          -0.4522849917411804 -0.0006339999963529408 0.8918730020523071 -0.45197799801826477 0.29393500089645386 0.8422099947929382
          -0.4434170126914978 0.4901160001754761 0.7504450082778931 -0.434251993894577 0.5272970199584961 0.7303299903869629
          -0.5186399817466736 0.5494840145111084 0.6550419926643372 -0.5140640139579773 0.15302400290966034 0.8439919948577881
          -0.502485990524292 0.3351399898529053 0.796986997127533 -0.218422994017601 0.021771999076008797 0.9756109714508057
          -0.1468210071325302 -0.13384099304676056 0.9800660014152527 -0.37345099449157715 0.0480320006608963 0.9264060258865356
          -0.4195620119571686 0.10660000145435333 0.9014459848403931 -0.5731989741325378 0.2762730121612549 0.7714380025863647
          -0.30813199281692505 -0.20715899765491486 0.9285150170326233 -0.13523200154304504 -0.26472601294517517 0.9547939896583557
          -0.3447459936141968 -0.10635799914598465 0.9326509833335876 -0.5193809866905212 0.24506500363349915 0.8186489939689636
          -0.3069719970226288 0.04024599865078926 0.9508669972419739 -0.4121659994125366 0.3667300045490265 0.834043025970459
          -0.5140309929847717 0.5479320287704468 0.6599559783935547 -0.42123299837112427 0.6232830286026001 0.658847987651825
          -0.21164900064468384 0.20960299670696259 0.954604983329773 -0.1451839953660965 0.1088000014424324 0.9834039807319641
          0.08457200229167938 0.43377700448036194 0.8970419764518738 0.03143199905753136 0.09735199809074402 0.9947540163993835
          -0.09166300296783447 0.44310399889945984 0.8917719721794128 -0.266975998878479 0.13308599591255188 0.9544699788093567
          -0.241240993142128 0.39254701137542725 0.8875300288200378 -0.40137699246406555 0.42278799414634705 0.8124939799308777
          -0.5182769894599915 0.2774200141429901 0.8089669942855835 -0.4283739924430847 0.2769170105457306 0.8601239919662476
          -0.45045900344848633 0.24716000258922577 0.8579040169715881 -0.39028000831604004 0.3300879895687103 0.8594899773597717
          -0.3875559866428375 0.23628999292850494 0.891048014163971 -0.26434099674224854 0.1918639987707138 0.9451519846916199
          -0.14715200662612915 0.21077899634838104 0.9663950204849243 -0.19687700271606445 0.27320900559425354 0.9415919780731201
          -0.24512800574302673 0.3053719997406006 0.9201419949531555 -0.28735798597335815 0.2210260033607483 0.9319729804992676
          -0.5667110085487366 -0.1478780061006546 0.8105379939079285 -0.4518660008907318 -0.14529399573802948 0.8801739811897278
          -0.5971720218658447 -0.15275399386882782 0.7874339818954468 -0.5111500024795532 0.007942000404000282 0.8594549894332886
          -0.5797820091247559 0.04931199923157692 0.8132780194282532 -0.5773400068283081 -0.18546399474143982 0.7951620221138
          -0.5631440281867981 0.389288991689682 0.7289190292358398 -0.47739800810813904 0.5166580080986023 0.7107430100440979
          -0.36932799220085144 0.6635609865188599 0.6506029963493347 -0.5924800038337708 0.5459579825401306 0.5923659801483154
          -0.5467110276222229 0.5177940130233765 0.65802401304245 -0.605666995048523 0.4297020137310028 0.6697189807891846
          -0.6572399735450745 0.2650580108165741 0.7055349946022034 -0.1829870045185089 -0.11637900024652481 0.9762030243873596
          -0.13333700597286224 -0.1741030067205429 0.9756579995155334 -0.0573589988052845 -0.2111790031194687 0.9757630228996277
          -0.3305400013923645 -0.16047200560569763 0.9300490021705627 -0.40505099296569824 0.033861998468637466 0.9136670231819153
          -0.3230130076408386 -0.27435699105262756 0.905754029750824 -0.21750499308109283 -0.36571601033210754 0.9049550294876099
          0.04227700084447861 -0.24834099411964417 0.9677500128746033 -0.06683199852705002 -0.41717201471328735 0.9063670039176941
          0.07781600207090378 -0.28797999024391174 0.9544690251350403 -0.27719199657440186 -0.2133139967918396 0.9368360042572021
          -0.26632899045944214 0.027612999081611633 0.9634870290756226 -0.19888700544834137 -0.15135499835014343 0.9682639837265015
          -0.26849600672721863 -0.04475000128149986 0.962240993976593 -0.5076940059661865 0.3224569857120514 0.7989169955253601
          -0.5231339931488037 0.29959699511528015 0.797855019569397 -0.42458900809288025 0.34344300627708435 0.8377180099487305
          -0.48844999074935913 0.42985299229621887 0.7593700289726257 -0.4701539874076843 0.46802398562431335 0.7482699751853943
          0.14338600635528564 0.3310370147228241 0.9326599836349487 0.07494399696588516 0.6408609747886658 0.7639889717102051
          -0.13222700357437134 -0.08066900074481964 0.9879310131072998 0.06230900064110756 -0.15026700496673584 0.9866799712181091
          -0.19990000128746033 0.45543399453163147 0.8675370216369629 -0.13447199761867523 0.6612780094146729 0.7379900217056274
          -0.25248101353645325 -0.06592100113630295 0.9653540253639221 -0.39300400018692017 0.2883949875831604 0.8731409907341003
          -0.2655949890613556 0.4432480037212372 0.8561490178108215 -0.45883598923683167 0.43146800994873047 0.776727020740509
          -0.4468989968299866 0.4437530040740967 0.7767660021781921 -0.5998769998550415 0.5597019791603088 0.5717350244522095
          -0.5597990155220032 0.39133700728416443 0.7303979992866516 -0.5008040070533752 0.526199996471405 0.6872469782829285
          -0.4629240036010742 0.5214750170707703 0.7167739868164062 -0.44875600934028625 0.5965690016746521 0.6653749942779541
          -0.4431839883327484 0.6336550116539001 0.634090006351471 -0.37523800134658813 0.40275898575782776 0.8348550200462341
          -0.21211199462413788 0.22114799916744232 0.9518939852714539 -0.15455900132656097 0.24003300070762634 0.9583820104598999
          -0.2776699960231781 0.2472819983959198 0.9283049702644348 -0.2522769868373871 0.3479210138320923 0.902944028377533
          -0.20464900135993958 0.438634991645813 0.8750529885292053 -0.2441900074481964 0.3575640022754669 0.9013980031013489
          -0.17292700707912445 0.0751739963889122 0.9820619821548462 -0.17007699608802795 0.23322300612926483 0.9574350118637085
          -0.36545100808143616 -0.12924399971961975 0.9218140244483948 -0.5801630020141602 -0.05077200010418892 0.8129169940948486
          -0.5415740013122559 -0.10850200057029724 0.8336219787597656 -0.6022329926490784 -0.04193999990820885 0.7972180247306824
          -0.6536830067634583 -0.20486600697040558 0.7285109758377075 -0.4396420121192932 -0.14836299419403076 0.8858349919319153
          -0.5742689967155457 -0.10695599764585495 0.8116499781608582 -0.6907659769058228 -0.21449600160121918 0.6905320286750793
          -0.5284389853477478 -0.12326300144195557 0.8399749994277954 -0.6341360211372375 0.2230529934167862 0.7403500080108643
          -0.6651120185852051 0.24255900084972382 0.7062519788742065 -0.5511339902877808 -0.1034030020236969 0.8279849886894226
          -0.4129840135574341 -0.2438870072364807 0.8774759769439697 -0.5179399847984314 -0.21683600544929504 0.8274790048599243
          -0.46636199951171875 0.4179910123348236 0.7796090245246887 -0.578577995300293 0.5045430064201355 0.6408460140228271
          -0.4346790015697479 0.3101600110530853 0.8454909920692444 -0.5686439871788025 0.35780099034309387 0.7406910061836243
          -0.427496999502182 0.5773090124130249 0.6956719756126404 0.9453200101852417 0.20184700191020966 0.25617900490760803
          0.4863770008087158 0.46431899070739746 0.7401660084724426 -0.6377390027046204 0.5963940024375916 0.48744601011276245
          -0.691025972366333 0.5566089749336243 0.4611609876155853 -0.5784810185432434 0.3470500111579895 0.7381839752197266
          -0.5868880152702332 0.42028599977493286 0.6920419931411743 -0.7273629903793335 0.4384709894657135 0.5279070138931274
          -0.08228400349617004 -0.17024900019168854 0.9819599986076355 -0.13780300319194794 -0.1920190006494522 0.971668004989624
          -0.40161800384521484 -0.21332000195980072 0.8906159996986389 -0.19604499638080597 -0.1937739998102188 0.9612590074539185
          0.12990300357341766 -0.2518700063228607 0.9590029716491699 0.007036999799311161 -0.2229280024766922 0.9748089909553528
          0.09408999979496002 -0.20885799825191498 0.9734089970588684 -0.2552669942378998 -0.3725399971008301 0.8922179937362671
          -0.18574300408363342 -0.534919023513794 0.8242340087890625 -0.005016999784857035 -0.38516199588775635 0.9228349924087524
          0.14242200553417206 -0.3573459982872009 0.9230489730834961 0.051601000130176544 -0.2773979902267456 0.9593679904937744
          0.06657099723815918 -0.24722500145435333 0.9666690230369568 -0.037296999245882034 -0.06252399832010269 0.9973459839820862
          -0.13450799882411957 -0.11001099646091461 0.9847869873046875 -0.008709000423550606 -0.29857298731803894 0.9543470144271851
          -0.19723300635814667 -0.4146929979324341 0.8883299827575684 -0.5596479773521423 0.4771850109100342 0.6775599718093872
          -0.4936850070953369 0.48290500044822693 0.7232409715652466 -0.556518018245697 0.5653769969940186 0.6087999939918518
          -0.44463101029396057 0.5638750195503235 0.695950984954834 -0.471763014793396 0.7337430119514465 0.48893800377845764
          -0.12568199634552002 0.03574100136756897 0.9914270043373108 -0.1793060004711151 0.6074550151824951 0.7738519906997681
          -0.10555999726057053 -0.23554499447345734 0.9661139845848083 -0.21367700397968292 -0.23766300082206726 0.9475539922714233
          -0.43877899646759033 0.43424201011657715 0.7867059707641602 -0.2450689971446991 -0.1297750025987625 0.9607809782028198
          -0.4113610088825226 0.14184899628162384 0.900367021560669 -0.3536849915981293 -0.13958899676799774 0.9248899817466736
          -0.351857990026474 0.06004299968481064 0.9341260194778442 -0.18710100650787354 -0.14894899725914001 0.9709830284118652
          -0.46389999985694885 0.3992539942264557 0.7908179759979248 -0.39384400844573975 0.2545680105686188 0.8832229971885681
          -0.4697819948196411 0.33927398920059204 0.8149830102920532 -0.260327011346817 0.42675599455833435 0.8660879731178284
          -0.4213300049304962 0.48688700795173645 0.765129029750824 -0.41337600350379944 0.4203929901123047 0.8077070116996765
          -0.42323100566864014 0.3131659924983978 0.8501780033111572 -0.25005701184272766 0.2858540117740631 0.9250730276107788
          -0.4869920015335083 0.8527719974517822 0.18872900307178497 -0.5721330046653748 0.6796029806137085 0.4591340124607086
          -0.4731149971485138 0.8315969705581665 0.29087498784065247 -0.4883880019187927 0.709971010684967 0.5073639750480652
          -0.4522570073604584 0.8209220170974731 0.3486410081386566 -0.4099879860877991 0.8150870203971863 0.40931999683380127
          -0.4543200135231018 0.8358709812164307 0.3080790042877197 -0.46730199456214905 0.8459330201148987 0.2569569945335388
          -0.39673998951911926 0.7122089862823486 0.5791000127792358 -0.31634199619293213 0.6537320017814636 0.6874319911003113
          -0.23198600113391876 0.42612001299858093 0.8744170069694519 -0.1685580015182495 0.3152090013027191 0.9339330196380615
          -0.27991899847984314 0.4105469882488251 0.8678110241889954 -0.25025200843811035 0.5027179718017578 0.8274350166320801
          -0.17509199678897858 0.17715099453926086 0.9684839844703674 -0.3147279918193817 0.2632890045642853 0.9119349718093872
          -0.05681199952960014 0.25638899207115173 0.9649029970169067 0.04008600115776062 0.16968800127506256 0.984682023525238
          0.18758800625801086 0.05125400051474571 0.9809100031852722 -0.5856299996376038 -0.2888830006122589 0.7573540210723877
          -0.567255973815918 -0.03407499939203262 0.8228359818458557 -0.5820900201797485 -0.36316201090812683 0.7275199890136719
          -0.7061769962310791 -0.0916839987039566 0.7020739912986755 -0.6595339775085449 0.15804000198841095 0.7348729968070984
          -0.5145769715309143 -0.24868300557136536 0.820589005947113 -0.6689310073852539 -0.0007140000234358013 0.7433239817619324
          -0.4967379868030548 -0.08602699637413025 0.863627016544342 -0.6405630111694336 0.5223010182380676 0.5629220008850098
          -0.699163019657135 0.42529699206352234 0.5747119784355164 -0.8177090287208557 0.18915200233459473 0.5436660051345825
          -0.6294659972190857 0.5434939861297607 0.555325984954834 -0.5166239738464355 -0.20975400507450104 0.8301230072975159
          -0.3792189955711365 -0.23827500641345978 0.8941019773483276 -0.5497559905052185 -0.02194800041615963 0.8350369930267334
          -0.6729739904403687 0.12906399369239807 0.7283179759979248 -0.4769980013370514 0.6602699756622314 0.5800999999046326
          -0.5624759793281555 0.44526800513267517 0.6966760158538818 -0.5727130174636841 0.6403869986534119 0.5117660164833069
          -0.5441579818725586 0.4282270073890686 0.7214660048484802 -0.451651006937027 0.8573139905929565 0.24702900648117065
          -0.5583450198173523 0.41783198714256287 0.7167059779167175 -0.6366580128669739 0.4560680091381073 0.6218270063400269
          0.7553009986877441 0.33949801325798035 0.5605900287628174 -0.5741890072822571 0.43689200282096863 0.6924110054969788
          -0.37232500314712524 0.4564090073108673 0.8081240057945251 -0.5829830169677734 0.5578740239143372 0.5906839966773987
          -0.6863459944725037 0.5035600066184998 0.5247439742088318 -0.6323130130767822 0.7407799959182739 0.2267719954252243
          -0.6041430234909058 0.7373740077018738 0.30214399099349976 -0.7411760091781616 0.5624809861183167 0.3664340078830719
          -0.7446529865264893 0.41647401452064514 0.5215759873390198 -0.8086509704589844 0.3615800142288208 0.4640510082244873
          -0.6428560018539429 0.4936330020427704 0.5857160091400146 -0.6394050121307373 0.4625769853591919 0.6141530275344849
          -0.5878450274467468 0.5947269797325134 0.5483949780464172 -0.6037899851799011 0.46703198552131653 0.6460019946098328
          -0.6446509957313538 0.6473299860954285 0.40667998790740967 -0.15669600665569305 -0.13927699625492096 0.9777770042419434
          -0.054809000343084335 -0.28308001160621643 0.9575290083885193 0.0497170016169548 -0.18480199575424194 0.9815170168876648
          -0.17184999585151672 -0.1557060033082962 0.9727399945259094 -0.33435699343681335 -0.1764409989118576 0.9257829785346985
          -0.21180400252342224 -0.27628400921821594 0.9374470114707947 -0.3664360046386719 -0.1789260059595108 0.9130780100822449
          -0.19530299305915833 -0.29493600130081177 0.9353439807891846 0.06640800088644028 -0.33961600065231323 0.9382169842720032
          -0.16819000244140625 -0.6157649755477905 0.7697700262069702 0.004784999880939722 -0.5216010212898254 0.8531759977340698
          -0.13304899632930756 -0.6720659732818604 0.72843998670578 0.09745100140571594 -0.33827799558639526 0.9359869956970215
          0.08697900176048279 -0.3791010081768036 0.9212579727172852 0.13978099822998047 -0.31698301434516907 0.938073992729187
          0.04855399951338768 -0.4552389979362488 0.8890439867973328 0.10305000096559525 -0.4962719976902008 0.862030029296875
          0.09045600146055222 -0.27959099411964417 0.955847978591919 0.1743140071630478 -0.11925099790096283 0.9774420261383057
          -0.016651999205350876 -0.5235300064086914 0.8518450260162354 -0.6997460126876831 0.4408769905567169 0.5621240139007568
          -0.5607249736785889 0.770484983921051 0.3032180070877075 -0.6309279799461365 0.5633320212364197 0.5334669947624207
          -0.46893900632858276 0.7852050065994263 0.40441200137138367 -0.4182240068912506 0.8973360061645508 0.1409830003976822
          -0.501118004322052 0.15046100318431854 0.8521980047225952 -0.49515500664711 -0.011478000320494175 0.8687289953231812
          -0.4236539900302887 0.08987300097942352 0.9013540148735046 -0.400299996137619 0.057705000042915344 0.9145659804344177
          -0.21525900065898895 -0.07870599627494812 0.9733800292015076 0.007019000127911568 -0.21818499267101288 0.9758819937705994
          0.009608999826014042 -0.204243004322052 0.9788730144500732 -0.42923200130462646 0.19332100450992584 0.8822630047798157
          -0.18495100736618042 -0.07601799815893173 0.9798030257225037 -0.22752699255943298 0.050551000982522964 0.9724590182304382
          0.026883000507950783 -0.17434599995613098 0.9843170046806335 -0.27817198634147644 0.47526198625564575 0.8347129821777344
          -0.32102999091148376 0.3825809955596924 0.8663550019264221 -0.3801020085811615 0.5030850172042847 0.7761620283126831
          -0.24200400710105896 0.1546899974346161 0.9578649997711182 -0.37120699882507324 0.9267860054969788 -0.05721199885010719
          -0.3844490051269531 0.923026978969574 0.014805999584496021 -0.38286998867988586 0.9159889817237854 0.11989100277423859
          -0.4432620108127594 0.8963810205459595 0.004420999903231859 -0.43621501326560974 0.892566978931427 0.11419499665498734
          -0.35410600900650024 0.8332939743995667 0.42453500628471375 -0.3870159983634949 0.7158640027046204 0.5811690092086792
          -0.41725900769233704 0.8415480256080627 0.34306201338768005 -0.24985800683498383 0.5590320229530334 0.7906039953231812
          -0.3627699911594391 0.5595020055770874 0.7452219724655151 -0.37668299674987793 0.5934450030326843 0.7112900018692017
          -0.03496599942445755 0.2240159958600998 0.9739580154418945 -0.1908939927816391 0.06337600201368332 0.9795629978179932
          -0.06779400259256363 0.15450499951839447 0.9856629967689514 0.21005499362945557 0.16318899393081665 0.9639739990234375
          0.08354400098323822 0.20895999670028687 0.9743490219116211 0.1492130011320114 0.1700190007686615 0.9740779995918274
          0.44360700249671936 -0.04931500181555748 0.894864022731781 0.3018909990787506 0.09192299842834473 0.9489009976387024
          0.2880919873714447 -0.08365499973297119 0.9539420008659363 0.43271100521087646 0.11456099897623062 0.8942239880561829
          -0.5153700113296509 -0.18012100458145142 0.8378250002861023 -0.6554099917411804 -0.4818289875984192 0.581616997718811
          -0.674884021282196 -0.542788028717041 0.49991199374198914 -0.6577079892158508 -0.3794179856777191 0.6507400274276733
          -0.5086179971694946 -0.22497500479221344 0.8310800194740295 -0.6605070233345032 0.14314599335193634 0.7370479702949524
          -0.6842769980430603 -0.20008699595928192 0.7012349963188171 -0.6277070045471191 -0.5038269758224487 0.5934159755706787
          -0.5547800064086914 -0.21584099531173706 0.8035119771957397 -0.8732699751853943 -0.04157499969005585 0.48545899987220764
          -0.7836560010910034 -0.1689389944076538 0.5977820158004761 -0.8718209862709045 0.07057400047779083 0.48471400141716003
          -0.7156360149383545 0.575950026512146 0.3951539993286133 0.15673799812793732 0.7607570290565491 0.6298270225524902
          -0.3096129894256592 0.734296977519989 0.604108989238739 -0.8431749939918518 0.4171859920024872 0.33913299441337585
          -0.9427059888839722 0.19712300598621368 0.2691600024700165 -0.9559890031814575 0.03471200168132782 0.29134100675582886
          -0.5251529812812805 0.6623039841651917 0.5343859791755676 -0.7398930191993713 -0.26947298645973206 0.6163939833641052
          -0.6698740124702454 -0.33582401275634766 0.6621860265731812 -0.5759180188179016 -0.2723590135574341 0.7708039879798889
          -0.7288150191307068 0.014817999675869942 0.6845499873161316 -0.6988300085067749 0.14257900416851044 0.7009339928627014
          -0.46947601437568665 0.8108130097389221 0.3495349884033203 -0.7040489912033081 0.5959979891777039 0.386135995388031
          -0.5321170091629028 0.6422799825668335 0.5516589879989624 -0.5006809830665588 0.8568829894065857 0.12275899946689606
          -0.35016199946403503 0.9353629946708679 -0.04983200132846832 -0.3473609983921051 0.9282439947128296 -0.13305799663066864
          -0.5459700226783752 0.7534430027008057 0.3663890063762665 -0.6411449909210205 0.6299110054969788 0.43834298849105835
          -0.6729040145874023 0.40806201100349426 0.6169970035552979 0.41418400406837463 0.6061969995498657 0.6789519786834717
          0.7572919726371765 0.5183619856834412 0.39725399017333984 -0.7123119831085205 0.6694599986076355 0.21079599857330322
          -0.7493429780006409 0.4384880065917969 0.49619901180267334 -0.7516300082206726 0.6575859785079956 0.05132099986076355
          -0.8105440139770508 0.5108829736709595 0.28638601303100586 -0.8448629975318909 0.33547699451446533 0.4167270064353943
          -0.7409129738807678 0.6223829984664917 0.25236600637435913 -0.8328850269317627 0.34070301055908203 0.4361479878425598
          -0.6548939943313599 0.7206649780273438 0.22750000655651093 -0.5347129702568054 0.8188629746437073 0.20867499709129333
          -0.4621640145778656 0.8752470016479492 -0.142645001411438 0.02164899930357933 -0.3665210008621216 0.9301580190658569
          -0.09578999876976013 -0.40034401416778564 0.9113450050354004 -0.002061000093817711 -0.5744150280952454 0.8185619711875916
          0.004904000088572502 -0.5435299873352051 0.8393750190734863 -0.21785099804401398 -0.4094569981098175 0.8859379887580872
          -0.1900169998407364 -0.35389700531959534 0.9157789945602417 -0.21570000052452087 -0.5008839964866638 0.8382059931755066
          -0.17365099489688873 -0.5995810031890869 0.7812479734420776 -0.4782409965991974 -0.14394700527191162 0.8663520216941833
          -0.3150070011615753 -0.33040401339530945 0.8897209763526917 -0.2350340038537979 -0.30777499079704285 0.9219729900360107
          -0.15212899446487427 -0.48094600439071655 0.8634510040283203 -0.1914920061826706 -0.5264829993247986 0.8283399939537048
          -0.12790900468826294 -0.5678240060806274 0.8131510019302368 0.06930699944496155 -0.5408329963684082 0.8382700085639954
          0.03280400112271309 -0.6378369927406311 0.7694730162620544 0.08145599812269211 -0.6665719747543335 0.7409769892692566
          -0.07862900197505951 -0.686743974685669 0.7226340174674988 0.08608900010585785 -0.41715601086616516 0.9047480225563049
          -0.020930999889969826 -0.5773109793663025 0.8162559866905212 0.06770800054073334 -0.3398129940032959 0.9380530118942261
          0.10558699816465378 -0.631397008895874 0.7682380080223083 0.11396700143814087 -0.45624199509620667 0.8825280070304871
          0.1306069940328598 -0.5495589971542358 0.8251829743385315 -0.1004600003361702 -0.5833889842033386 0.8059560060501099
          0.2971870005130768 -0.4438599944114685 0.8453800082206726 0.06819500029087067 -0.5595359802246094 0.8259959816932678
          0.1600790023803711 -0.404231995344162 0.900538980960846 0.0915829986333847 -0.6407269835472107 0.7622870206832886
          0.09757799655199051 -0.7448650002479553 0.6600409746170044 0.14535099267959595 -0.7695900201797485 0.6217749714851379
          0.2664420008659363 -0.1963530033826828 0.9436389803886414 0.08911500126123428 -0.4079509973526001 0.9086440205574036
          0.20838899910449982 -0.2871440052986145 0.9349449872970581 -0.014046000316739082 -0.5557720065116882 0.8312159776687622
          -0.4077720046043396 0.911791980266571 0.048551999032497406 -0.42657598853111267 0.9042260050773621 -0.020200999453663826
          0.024942999705672264 -0.07795099914073944 0.9966449737548828 0.24906300008296967 -0.24328100681304932 0.9374340176582336
          0.2529259920120239 -0.24650399386882782 0.9355549812316895 0.07110600173473358 -0.09650799632072449 0.9927889704704285
          0.10755500197410583 0.02787500061094761 0.9938079714775085 -0.36811599135398865 0.5845159888267517 0.7230709791183472
          -0.22437900304794312 0.4497320055961609 0.8645200133323669 0.005764999892562628 0.2742590010166168 0.9616379737854004
          -0.12612900137901306 0.6086879968643188 0.7833200097084045 0.03063799999654293 0.08289899677038193 0.9960870146751404
          -0.41665399074554443 0.9074530005455017 -0.05411500111222267 -0.4520849883556366 0.8841140270233154 -0.11816000193357468
          -0.4769800007343292 0.8789100050926208 0.0027840000111609697 -0.44882699847221375 0.8869900107383728 0.10864199697971344
          -0.5597310066223145 0.8238549828529358 0.08923500031232834 -0.44721999764442444 0.8603150248527527 0.24464599788188934
          -0.45395201444625854 0.7127249836921692 0.5347440242767334 -0.3505289852619171 0.7460029721260071 0.5662239789962769
          -0.27922600507736206 0.7798550128936768 0.5602319836616516 -0.3455060124397278 0.7287840247154236 0.5911849737167358
          -0.2419479936361313 0.8821539878845215 0.4040609896183014 0.21220099925994873 0.10402899980545044 0.9716730117797852
          0.49042099714279175 0.1789959967136383 0.8529049754142761 0.42059698700904846 0.08017200231552124 0.9036980271339417
          0.5088739991188049 0.0500979982316494 0.8593819737434387 0.4565269947052002 -0.20956499874591827 0.8646759986877441
          0.5982549786567688 -0.09878300130367279 0.7951939702033997 0.6441199779510498 -0.23815199732780457 0.7269060015678406
          0.6223859786987305 0.11006499826908112 0.7749329805374146 0.6689779758453369 -0.10201500356197357 0.7362480163574219