<?xml version="1.0"?>
<VTKFile type="PolyData" version="0.1" byte_order="LittleEndian" header_type="UInt32" compressor="vtkZLibDataCompressor">
  <PolyData>
    <Piece NumberOfPoints="2270" NumberOfVerts="0" NumberOfLines="0" NumberOfStrips="0" NumberOfPolys="4536">
      <PointData Normals="Normals">
        <DataArray type="Float32" Name="Normals" NumberOfComponents="3" format="ascii" RangeMin="0.999999200047897" RangeMax="1.0000007759658507">
          0.8492410182952881 -0.36204400658607483 0.384333997964859 0.7276210188865662 -0.39440399408340454 0.5612599849700928
          0.6313440203666687 -0.4381999969482422 0.6398329734802246 0.6871860027313232 -0.41468000411987305 0.5965030193328857
          0.8756369948387146 -0.2895379960536957 0.38655900955200195 0.8433449864387512 -0.40861499309539795 0.34900400042533875
          0.9238089919090271 -0.3484340012073517 0.15865400433540344 0.9293320178985596 -0.2663300037384033 0.2557550072669983
          0.4819360077381134 -0.473827987909317 0.7370370030403137 0.6744459867477417 -0.38015300035476685 0.6329339742660522
          0.3405599892139435 -0.5116109848022461 0.7888429760932922 0.37705498933792114 -0.49376100301742554 0.7835999727249146
          0.5516369938850403 -0.5344889760017395 0.640326976776123 0.7398309707641602 -0.46548599004745483 0.48576998710632324
          0.6690880060195923 -0.2962050139904022 0.6816040277481079 0.8637509942054749 -0.240339994430542 0.4429109990596771
          0.9441850185394287 -0.21031799912452698 0.2535359859466553 0.9611539840698242 -0.23834699392318726 0.1391880065202713
          0.9629679918289185 -0.2041970044374466 0.17605899274349213 0.8662310242652893 -0.4579690098762512 0.19977299869060516
          0.9440410137176514 -0.3297320008277893 -0.008004999719560146 0.06440500169992447 -0.5693339705467224 0.8195800185203552
          0.41824600100517273 -0.387006014585495 0.8217650055885315 0.24302999675273895 -0.49625998735427856 0.8334640264511108
          0.5775089859962463 -0.35283300280570984 0.7362009882926941 0.10952600091695786 -0.540448009967804 0.8342180252075195
          0.0337969996035099 -0.5723569989204407 0.8193079829216003 0.18752500414848328 -0.6252419948577881 0.757565975189209
          0.447609007358551 -0.6857879757881165 0.573881983757019 0.7102959752082825 -0.5429930090904236 0.4479280114173889
          0.7449880242347717 -0.20403799414634705 0.6351069808006287 0.42388901114463806 -0.21031799912452698 0.8809570074081421
          0.5330889821052551 -0.2116450071334839 0.819159984588623 0.9466019868850708 -0.09832800179719925 0.30704399943351746
          0.8654059767723083 -0.10345900058746338 0.49027401208877563 0.9615219831466675 -0.11381199955940247 0.25004398822784424
          0.9641150236129761 -0.21460799872875214 0.1562879979610443 0.9598429799079895 -0.2691609859466553 0.07908400148153305
          0.8769000172615051 -0.4687269926071167 0.10649199783802032 0.9459909796714783 -0.32188698649406433 -0.038596998900175095
          0.6734529733657837 -0.6278219819068909 0.39025700092315674 0.7935410141944885 -0.5788210034370422 0.18777300417423248
          0.9708679914474487 -0.238304004073143 -0.025025000795722008 0.9387329816818237 -0.220768004655838 -0.2646549940109253
          -0.08976700156927109 -0.5376240015029907 0.8383920192718506 -0.31992000341415405 -0.47541001439094543 0.8195350170135498
          -0.23200899362564087 -0.5597289800643921 0.7955350279808044 0.07863999903202057 -0.444148987531662 0.8924949765205383
          0.10347499698400497 -0.39109599590301514 0.9145150184631348 0.13977199792861938 -0.4101499915122986 0.9012439846992493
          0.20274600386619568 -0.3305949866771698 0.9217380285263062 -0.13186299800872803 -0.6961489915847778 0.7056829929351807
          0.059408001601696014 -0.7511399984359741 0.6574649810791016 0.3575269877910614 -0.7556380033493042 0.548803985118866
          0.6277409791946411 -0.08455000072717667 0.7738170027732849 0.08969199657440186 -0.2919909954071045 0.952206015586853
          0.19826500117778778 -0.236175999045372 0.9512689709663391 0.4312399923801422 -0.09284300357103348 0.8974480032920837
          0.5445420145988464 0.042534999549388885 0.8376539945602417 0.3938550055027008 -0.13875600695610046 0.9086390137672424
          0.9139670133590698 -0.018473999574780464 0.405366986989975 0.9563339948654175 0.058963000774383545 0.2862679958343506
          0.7845020294189453 0.01217699982225895 0.6200069785118103 0.9480080008506775 0.1275230050086975 0.29158100485801697
          0.9731929898262024 -0.07178299874067307 0.21849900484085083 0.9485530257225037 0.014801999554038048 0.3162730038166046
          0.9718800187110901 -0.17129099369049072 0.16158199310302734 0.9383689761161804 -0.3455759882926941 -0.006465999875217676
          0.7571830153465271 -0.6425660252571106 0.11740200221538544 0.7763760089874268 -0.6289470195770264 0.0408100001513958
          0.8323550224304199 -0.5398920178413391 0.12530800700187683 0.9455100297927856 -0.2265460044145584 -0.23385299742221832
          0.5947279930114746 -0.7194439768791199 0.3587470054626465 0.9940810203552246 -0.08102300018072128 -0.0723709985613823
          0.9506350159645081 -0.15083199739456177 -0.27118799090385437 0.9707670211791992 -0.11516500264406204 -0.21059100329875946
          0.9203180074691772 -0.15832699835300446 -0.3576970100402832 0.8716480135917664 -0.21941399574279785 -0.4382779896259308
          0.8541669845581055 -0.2127230018377304 -0.474496990442276 0.8833450078964233 -0.18861499428749084 -0.42910000681877136
          -0.1545110046863556 -0.4366590082645416 0.8862590193748474 -0.4527510106563568 -0.4899280071258545 0.7449749708175659
          -0.17671599984169006 -0.3875580132007599 0.9047489762306213 -0.32721298933029175 -0.42787399888038635 0.8425300121307373
          -0.4282360076904297 -0.424576997756958 0.7977150082588196 -0.4819999933242798 -0.4433470070362091 0.7557250261306763
          -0.4505139887332916 -0.5122979879379272 0.7311549782752991 -0.39429500699043274 -0.5700569748878479 0.7208099961280823
          -0.18500100076198578 -0.7009660005569458 0.6887819766998291 0.01976500079035759 -0.7260580062866211 0.6873490214347839
          0.28168800473213196 -0.7568140029907227 0.589818000793457 0.46395599842071533 0.07673700153827667 0.8825280070304871
          0.6643589735031128 0.0985729992389679 0.7408850193023682 -0.026277000084519386 -0.2638930082321167 0.9641939997673035
          0.16679500043392181 -0.16594399511814117 0.9719269871711731 0.39900699257850647 0.09508699923753738 0.9120039939880371
          0.5589600205421448 0.28470200300216675 0.7787860035896301 0.4759010076522827 0.027045000344514847 0.879082977771759
          0.4382520020008087 0.33361899852752686 0.8346459865570068 0.8127419948577881 0.14304600656032562 0.5647910237312317
          0.8676319718360901 0.2848129868507385 0.4075489938259125 0.8798559904098511 0.3063820004463196 0.3632949888706207
          0.8479539752006531 0.3139500021934509 0.4270940124988556 0.9449419975280762 0.20334899425506592 0.2563849985599518
          0.9840120077133179 0.05217000097036362 0.1702899932861328 0.9976199865341187 -0.04335499927401543 0.053606998175382614
          0.8759109973907471 -0.4823180139064789 0.01218200009316206 0.9179509878158569 -0.3193199932575226 -0.23537500202655792
          0.624875009059906 -0.753180980682373 0.2055470049381256 0.6694769859313965 -0.7313510179519653 0.13010099530220032
          0.755640983581543 -0.6467459797859192 0.10356800258159637 0.7698649764060974 -0.6171470284461975 0.16259600222110748
          0.8893679976463318 -0.24883300065994263 -0.38354599475860596 0.3097200095653534 -0.8193479776382446 0.4824340045452118
          0.9575740098953247 -0.04887000098824501 -0.2840139865875244 0.9930530190467834 -0.0034469999372959137 -0.11761900037527084
          0.9418990015983582 -0.13766899704933167 -0.3063870072364807 0.8562229871749878 -0.22419600188732147 -0.46542298793792725
          0.9109039902687073 -0.21907299757003784 -0.3496589958667755 0.8785229921340942 -0.27096500992774963 -0.39341500401496887
          0.8156650066375732 -0.2994770109653473 -0.49497899413108826 0.8085160255432129 -0.3245919942855835 -0.4908590018749237
          0.8173720240592957 -0.21972200274467468 -0.5325649976730347 0.8455169796943665 -0.28028300404548645 -0.4544689953327179
          -0.5394870042800903 -0.46142899990081787 0.7042989730834961 -0.35534098744392395 -0.38115501403808594 0.8534950017929077
          -0.14869900047779083 -0.3015590012073517 0.9417809844017029 -0.5594819784164429 -0.3569909930229187 0.7480220198631287
          -0.16235800087451935 -0.6254889965057373 0.7631530165672302 -0.22714099287986755 -0.6789399981498718 0.698173999786377
          -0.5318199992179871 -0.43177300691604614 0.7285190224647522 -0.45209801197052 -0.5202509760856628 0.7245320081710815
          0.0287650004029274 -0.7316830158233643 0.6810380220413208 0.30081599950790405 0.2562110126018524 0.9186220169067383
          0.5283640027046204 0.24355299770832062 0.8133350014686584 0.01614999957382679 -0.210875004529953 0.9773799777030945
          0.36464500427246094 0.03291900083422661 0.9305639863014221 0.5190460085868835 0.37637099623680115 0.7674210071563721
          0.41352200508117676 0.21825699508190155 0.883948028087616 0.48655998706817627 0.4749230146408081 0.7332860231399536
          0.31120601296424866 0.4222249984741211 0.8513969779014587 0.41277098655700684 0.5455989837646484 0.7293429970741272
          0.6296700239181519 0.38152799010276794 0.67672199010849 0.7925879955291748 0.37759900093078613 0.47877201437950134
          0.718982994556427 0.4208410084247589 0.5531330108642578 0.6117389798164368 0.4594370126724243 0.6439669728279114
          0.6699590086936951 0.46869099140167236 0.5757459998130798 0.8985840082168579 0.3694339990615845 0.23678000271320343
          0.9930480122566223 0.10879000276327133 0.04494699835777283 0.8598939776420593 -0.45170098543167114 -0.23779800534248352
          0.8021770119667053 -0.5969690084457397 0.011826000176370144 0.37632501125335693 -0.8528460264205933 0.3619849979877472
          0.3857409954071045 -0.8633970022201538 0.32519200444221497 0.29431700706481934 -0.8572589755058289 0.4224739968776703
          0.4831230044364929 -0.8201619982719421 0.3064740002155304 0.7011860013008118 -0.6926929950714111 0.16886299848556519
          0.7899550199508667 -0.6128270030021667 -0.02035900019109249 0.7626910209655762 -0.6440349817276001 -0.059342000633478165
          0.7583900094032288 -0.6458389759063721 -0.08795899897813797 0.7933689951896667 -0.608555018901825 -0.015023999847471714
          -0.005940999835729599 -0.7993050217628479 0.6008960008621216 0.9698050022125244 -0.06866399943828583 -0.23401600122451782
          0.980443000793457 0.07729899883270264 -0.18098799884319305 0.935263991355896 -0.23618899285793304 -0.2636229991912842
          0.8524960279464722 -0.2671459913253784 -0.44931501150131226 0.8237329721450806 -0.27949801087379456 -0.4932999908924103
          0.8126469850540161 -0.3217200040817261 -0.48590099811553955 0.8612750172615051 -0.33005499839782715 -0.3863550126552582
          0.7139589786529541 -0.3899349868297577 -0.5815610289573669 0.7601950168609619 -0.32599499821662903 -0.5619869828224182
          0.7522199749946594 -0.349604994058609 -0.5585169792175293 0.8070809841156006 -0.48247599601745605 -0.3403469920158386
          -0.5739619731903076 -0.38306498527526855 0.7237600088119507 -0.2552550137042999 -0.29967498779296875 0.9192609786987305
          -0.5584689974784851 -0.17326700687408447 0.8112289905548096 -0.48207399249076843 -0.20400799810886383 0.8520479798316956
          0.4527469873428345 -0.30227598547935486 0.8388379812240601 -0.2374970018863678 -0.7172300219535828 0.655115008354187
          -0.3633599877357483 -0.614782989025116 0.7000089883804321 -0.6464700102806091 -0.26933199167251587 0.7138190269470215
          -0.5247049927711487 -0.3504660129547119 0.7757949829101562 -0.38555601239204407 -0.40474000573158264 0.8291749954223633
          -0.476408988237381 -0.38873499631881714 0.7886180281639099 -0.4569930136203766 -0.46876800060272217 0.7559189796447754
          -0.5092790126800537 -0.46664199233055115 0.7231050133705139 -0.454353004693985 -0.45656201243400574 0.7649270296096802
          -0.38016900420188904 -0.40684399008750916 0.8306319713592529 -0.15341399610042572 -0.1898290067911148 0.9697570204734802
          0.17962299287319183 -0.014539999887347221 0.98362797498703 0.24940000474452972 0.26672500371932983 0.93094402551651
          0.31923800706863403 0.43041500449180603 0.8442929983139038 0.044819001108407974 0.028158999979496002 0.9985979795455933
          0.16124600172042847 0.47514599561691284 0.8650060296058655 0.25639501214027405 0.4887090027332306 0.8339210152626038
          0.4015749990940094 0.5175510048866272 0.7555649876594543 0.42796799540519714 0.5248690247535706 0.7357689738273621
          0.5445280075073242 0.5808579921722412 0.6050570011138916 0.5152329802513123 0.5391600131988525 0.6662139892578125
          0.40453898906707764 0.5370299816131592 0.7402340173721313 0.4140999913215637 0.5700790286064148 0.7095990180969238
          0.6663240194320679 0.5341119766235352 0.5203229784965515 0.97918301820755 0.2011999934911728 0.02682100050151348
          0.9829260110855103 0.17317800223827362 -0.0621739998459816 0.867467999458313 0.46387800574302673 0.17976899445056915
          0.7236689925193787 0.5545750260353088 0.4107910096645355 0.95763099193573 0.28252801299095154 0.05586300045251846
          0.9517539739608765 0.3019160032272339 -0.054871998727321625 0.12171699851751328 -0.8460819721221924 0.5189700126647949
          0.1400199979543686 -0.8426330089569092 0.5199649930000305 0.4394949972629547 -0.7965610027313232 0.41513198614120483
          0.008194000460207462 -0.7725629806518555 0.6348850131034851 0.7443680167198181 -0.6420140266418457 0.1836709976196289
          0.8095380067825317 -0.5816720128059387 -0.07941000163555145 0.7752209901809692 -0.5232279896736145 -0.35392799973487854
          0.7910820245742798 -0.528751015663147 -0.3075900077819824 0.7667639851570129 -0.5243610143661499 -0.370294988155365
          0.7723820209503174 -0.5274670124053955 -0.35384199023246765 -0.1589760035276413 -0.7302259802818298 0.6644530296325684
          0.9549980163574219 -0.2277979999780655 -0.18996599316596985 0.9809799790382385 0.04197800159454346 -0.18951599299907684
          0.9706609845161438 -0.20880399644374847 -0.11924000084400177 0.9870619773864746 0.05069600045681 -0.15211200714111328
          0.9406880140304565 -0.29587098956108093 -0.16603000462055206 0.8911120295524597 -0.3900330066680908 -0.23193199932575226
          0.7926309704780579 -0.42191699147224426 -0.4401389956474304 0.7924010157585144 -0.4706149995326996 -0.3881010115146637
          0.6542059779167175 -0.3621479868888855 -0.6639750003814697 0.5492839813232422 -0.4466690123081207 -0.7062399983406067
          0.6747459769248962 -0.5083960294723511 -0.5350250005722046 0.5630080103874207 -0.5039479732513428 -0.6550260186195374
          0.7449319958686829 -0.3949280083179474 -0.5376880168914795 0.6907550096511841 -0.3427950143814087 -0.6366710066795349
          0.7595319747924805 -0.4130469858646393 -0.5024970173835754 -0.3812299966812134 -0.20074500143527985 0.9024220108985901
          -0.6689050197601318 -0.1535390019416809 0.7273190021514893 -0.4831559956073761 -0.014751999638974667 0.8754100203514099
          -0.5452049970626831 -0.12905700504779816 0.8283089995384216 -0.5755800008773804 0.12037300318479538 0.8088380098342896
          -0.5615820288658142 0.06324099749326706 0.8250010013580322 0.7467949986457825 -0.15155600011348724 0.6475560069084167
          0.46168699860572815 -0.23787499964237213 0.8545529842376709 -0.2541249990463257 -0.6019260287284851 0.7570369839668274
          -0.6082479953765869 -0.28914299607276917 0.7392100095748901 -0.6399670243263245 -0.2637920081615448 0.7217040061950684
          -0.6435009837150574 -0.13618700206279755 0.753233015537262 -0.6646639704704285 -0.10795100033283234 0.7393029928207397
          -0.3971079885959625 -0.2862260043621063 0.8719969987869263 -0.25411298871040344 -0.38666799664497375 0.8865180015563965
          -0.30571600794792175 -0.35908401012420654 0.8818140029907227 -0.36292800307273865 -0.42275500297546387 0.8303980231285095
          -0.41296398639678955 -0.44450798630714417 0.7949050068855286 -0.22732500731945038 -0.3696480095386505 0.9009349942207336
          -0.3167420029640198 -0.10422199964523315 0.9427689909934998 -0.19405299425125122 0.10986500233411789 0.9748200178146362
          -0.031442999839782715 0.32537901401519775 0.9450610280036926 -0.07547800242900848 0.4167400002479553 0.9058870077133179
          0.14444500207901 0.44903600215911865 0.8817610144615173 -0.11066299676895142 0.3547370135784149 0.9283940196037292
          -0.03392700105905533 0.43205100297927856 0.9012110233306885 0.2480580061674118 0.4972519874572754 0.8313890099525452
          0.5999490022659302 0.5092999935150146 0.6169880032539368 0.6864410042762756 0.47067001461982727 0.5543180108070374
          0.47730299830436707 0.5808740258216858 0.6593689918518066 0.2918590009212494 0.6142119765281677 0.7331860065460205
          0.2166379988193512 0.5506489872932434 0.8061349987983704 0.02614700049161911 0.48536598682403564 0.8739200234413147
          0.277442991733551 0.6407600045204163 0.7158570289611816 0.4981729984283447 0.6139860153198242 0.6122459769248962
          0.971934974193573 0.19490200281143188 -0.13174299895763397 0.9849439859390259 0.14259399473667145 -0.09773200005292892
          0.7035769820213318 0.5912629961967468 0.39419400691986084 0.9260079860687256 0.37672799825668335 0.024174999445676804
          0.8344929814338684 0.5217599868774414 0.17716799676418304 0.6876019835472107 0.6352249979972839 0.35169899463653564
          0.4425069987773895 0.6696739792823792 0.5964270234107971 0.969560980796814 0.21058499813079834 -0.12492399662733078
          0.9733359813690186 0.21213699877262115 -0.0872649997472763 0.9219229817390442 0.383432000875473 -0.055125001817941666
          -0.07395300269126892 -0.7892040014266968 0.6096619963645935 0.24893000721931458 -0.7845050096511841 0.5679669976234436
          0.6786800026893616 -0.7181209921836853 0.15393200516700745 0.5321739912033081 -0.7711340188980103 0.3494890034198761
          -0.17819200456142426 -0.589900016784668 0.7875699996948242 -0.01832599937915802 -0.7305439710617065 0.6826189756393433
          0.7259690165519714 -0.687142014503479 0.028387999162077904 0.7575809955596924 -0.6361600160598755 -0.14619199931621552
          0.7514089941978455 -0.5338760018348694 -0.38776299357414246 0.7222579717636108 -0.44711101055145264 -0.5276690125465393
          0.7195109724998474 -0.39538899064064026 -0.5709390044212341 0.6465169787406921 -0.5018829703330994 -0.5745689868927002
          0.9742580056190491 -0.2197989970445633 -0.05010100081562996 0.9994329810142517 -0.019192999228835106 -0.027665000408887863
          0.9848250150680542 -0.17000000178813934 -0.03491799905896187 0.9448419809341431 -0.31933099031448364 -0.07281000167131424
          0.8718299865722656 -0.41669100522994995 -0.25745001435279846 0.9316040277481079 -0.3499000072479248 -0.09840899705886841
          0.9194669723510742 -0.3646399974822998 -0.1470309942960739 0.8507069945335388 -0.47045600414276123 -0.23445400595664978
          0.8473759889602661 -0.4337190091609955 -0.3063350021839142 0.7145419716835022 -0.5216709971427917 -0.46614301204681396
          0.7954149842262268 -0.4656290113925934 -0.38795000314712524 0.6686499714851379 -0.5586509704589844 -0.49073100090026855
          0.5616689920425415 -0.3974820077419281 -0.7256280183792114 0.38806599378585815 -0.4859749972820282 -0.7830920219421387
          0.522167980670929 -0.5450839996337891 -0.6559140086174011 0.5247970223426819 -0.6113809943199158 -0.5922840237617493
          0.42989200353622437 -0.5440329909324646 -0.7205700278282166 0.5765219926834106 -0.39612799882888794 -0.7146360278129578
          -0.3725050091743469 0.18892300128936768 0.9085969924926758 -0.6888539791107178 -0.037445999681949615 0.7239320278167725
          -0.674472987651825 0.09176900237798691 0.7325739860534668 -0.4356659948825836 0.2172120064496994 0.873507022857666
          -0.42212098836898804 0.3180069923400879 0.8489320278167725 -0.5674870014190674 0.27887800335884094 0.7747160196304321
          -0.39905300736427307 0.29923298954963684 0.8667269945144653 -0.44944798946380615 -0.12359199672937393 0.8847159743309021
          -0.6331440210342407 -0.06683000177145004 0.7711430191993713 -0.6710379719734192 0.042080000042915344 0.740227997303009
          -0.3789750039577484 -0.21607500314712524 0.8998280167579651 -0.1921200007200241 -0.3169499933719635 0.9287800192832947
          -0.29389598965644836 -0.25717899203300476 0.920589029788971 -0.39726999402046204 -0.31870201230049133 0.8605849742889404
          -0.40188100934028625 -0.3027690052986145 0.8641890287399292 -0.19089899957180023 -0.5609549880027771 0.8055350184440613
          -0.3295229971408844 -0.41139400005340576 0.849806010723114 -0.23003500699996948 -0.3785029947757721 0.89656001329422
          -0.31026700139045715 -0.38743600249290466 0.8681169748306274 -0.2956550121307373 -0.3588019907474518 0.8853520154953003
          -0.1973000019788742 -0.43885400891304016 0.8766300082206726 -0.2612000107765198 0.2789610028266907 0.9240970015525818
          -0.23447799682617188 0.32867899537086487 0.9148719906806946 -0.19086700677871704 0.42548900842666626 0.8846070170402527
          0.2495429962873459 0.5714259743690491 0.7817929983139038 0.5336160063743591 0.5803530216217041 0.6151779890060425
          0.5072939991950989 0.5806220173835754 0.6368139982223511 0.2814120054244995 0.6819900274276733 0.6750530004501343
          0.4994420111179352 0.5982040166854858 0.6266649961471558 -0.16880400478839874 0.5328159928321838 0.8292239904403687
          -0.10178600251674652 0.533473014831543 0.8396700024604797 -0.2981620132923126 0.503216028213501 0.8110939860343933
          -0.39694300293922424 0.387719988822937 0.8319309949874878 -0.4200510084629059 0.38517001271247864 0.8217059969902039
          0.9816640019416809 0.18515600264072418 0.04530100151896477 0.47020700573921204 0.6927430033683777 0.5468199849128723
          0.8887420296669006 0.4532110095024109 0.06883600354194641 0.6361439824104309 0.7207000255584717 0.27552300691604614
          0.8209400177001953 0.5652620196342468 0.08084999769926071 0.4252389967441559 0.7392119765281677 0.5222430229187012
          0.9740070104598999 0.20651499927043915 -0.09307000041007996 0.9722650051116943 0.23388099670410156 0.0009350000182166696
          0.9733020067214966 0.2292959988117218 0.010351000353693962 0.9116759896278381 0.4084160029888153 0.04520599916577339
          0.9637069702148438 0.26548001170158386 0.028094999492168427 0.762703001499176 0.6426590085029602 0.0726189985871315
          -0.016189999878406525 -0.8406980037689209 0.5412610173225403 0.17131899297237396 -0.8451380133628845 0.5063520073890686
          0.4381130039691925 -0.7841249704360962 0.4395509958267212 0.593845009803772 -0.8039379715919495 0.03213400021195412
          0.6684169769287109 -0.7095940113067627 -0.22292399406433105 0.39017200469970703 -0.8754900097846985 0.2851020097732544
          -0.08116599917411804 -0.7214419841766357 0.6877020001411438 0.6403629779815674 -0.6210820078849792 -0.4518760144710541
          0.5418000221252441 -0.6378129720687866 -0.5474010109901428 0.45626598596572876 -0.4797680079936981 -0.7494289875030518
          0.9944859743118286 0.08759699761867523 0.05766399949789047 0.983398973941803 0.16154299676418304 0.08264899998903275
          0.9877970218658447 -0.1543540060520172 0.020778000354766846 0.9399669766426086 -0.34066298604011536 -0.020292000845074654
          0.7462720274925232 -0.5839300155639648 -0.3195349872112274 0.8648489713668823 -0.48253700137138367 -0.1385439932346344
          0.6345970034599304 -0.6412979960441589 -0.4313049912452698 0.3887009918689728 -0.42492398619651794 -0.8175269961357117
          0.20249000191688538 -0.4617150127887726 -0.8636069893836975 0.2324730008840561 -0.5222769975662231 -0.8204770088195801
          0.3473590016365051 -0.631496012210846 -0.6932200193405151 0.47230300307273865 -0.7041130065917969 -0.5302410125732422
          0.36611899733543396 -0.40615200996398926 -0.8372560143470764 0.416361004114151 -0.39798399806022644 -0.8174669742584229
          -0.6373739838600159 -0.014751000329852104 0.7704139947891235 -0.5383899807929993 0.1972309947013855 0.8192899823188782
          -0.684686005115509 0.0976480022072792 0.7222669720649719 -0.5241429805755615 0.3297320008277893 0.785207986831665
          -0.5086399912834167 0.24906599521636963 0.824167013168335 0.9477540254592896 -0.005491999909281731 0.3189559876918793
          0.7533969879150391 0.10738299787044525 0.6487389802932739 -0.5481699705123901 0.051830001175403595 0.834758996963501
          -0.4577449858188629 0.06208999827504158 0.886913001537323 -0.5493080019950867 -0.1324950009584427 0.8250489830970764
          -0.5966809988021851 -0.05291999876499176 0.8007320165634155 -0.6529719829559326 0.14849700033664703 0.7426810264587402
          -0.4955480098724365 0.20937100052833557 0.8429679870605469 -0.6713380217552185 0.052011001855134964 0.7393239736557007
          -0.6485980153083801 0.11242999881505966 0.7527819871902466 -0.6361010074615479 0.16998299956321716 0.7526500225067139
          -0.4697589874267578 -0.32135000824928284 0.8222290277481079 -0.504734992980957 -0.33827099204063416 0.7942389845848083
          -0.5330089926719666 -0.3421179950237274 0.7738580107688904 -0.49744901061058044 -0.3249419927597046 0.8043360114097595
          -0.589713990688324 -0.2842000126838684 0.7559549808502197 -0.20713700354099274 -0.7240660190582275 0.6578919887542725
          -0.10062800347805023 -0.7071390151977539 0.6998779773712158 -0.15882200002670288 -0.367480993270874 0.9163690209388733
          -0.15063799917697906 -0.5275149941444397 0.8360840082168579 -0.1416729986667633 -0.3483020067214966 0.9266149997711182
          -0.4404189884662628 -0.4063740074634552 0.800557017326355 -0.17467500269412994 -0.2931950092315674 0.9399600028991699
          -0.42981499433517456 -0.38854900002479553 0.8150389790534973 0.12449900060892105 0.5968379974365234 0.7926440238952637
          0.5274119973182678 0.6639189720153809 0.5301390290260315 0.4960879981517792 0.5444750189781189 0.6763460040092468
          0.20488999783992767 0.5860729813575745 0.7839249968528748 -0.3176780045032501 0.4098980128765106 0.8550230264663696
          0.4989970028400421 0.756534993648529 0.42267799377441406 0.6287000179290771 0.7434589862823486 0.2280460000038147
          0.952409029006958 0.2801010012626648 0.12025299668312073 0.8737339973449707 0.44518300890922546 0.1959639936685562
          0.7462360262870789 0.6389200091362 0.18684899806976318 0.9195299744606018 0.2850939929485321 0.27052998542785645
          0.9529500007629395 0.2628070116043091 0.15105700492858887 0.9586679935455322 0.22371500730514526 0.175804004073143
          0.968828022480011 0.10322000086307526 0.22520600259304047 -0.0014220000011846423 -0.7651919722557068 0.6438009738922119
          0.04655500128865242 -0.9344019889831543 0.35316500067710876 0.10440299659967422 -0.7940400242805481 0.5988320112228394
          0.23857399821281433 -0.889286994934082 0.39019399881362915 0.2847220003604889 -0.8970159888267517 0.33807501196861267
          0.5788009762763977 -0.7344719767570496 -0.35431599617004395 0.5210059881210327 -0.8516560196876526 -0.05687800049781799
          0.43791699409484863 -0.8980900049209595 0.04078200086951256 0.5724999904632568 -0.7642520070075989 -0.2969219982624054
          0.5661659836769104 -0.77121502161026 -0.2910040020942688 0.4564659893512726 -0.6224240064620972 -0.6357889771461487
          0.26784899830818176 -0.5846719741821289 -0.7657780051231384 0.28070199489593506 -0.4506619870662689 -0.8474140167236328
          0.9378659725189209 0.2742150127887726 0.21263499557971954 0.9817889928817749 0.11795499920845032 0.14892099797725677
          0.987650990486145 -0.1279889941215515 0.09035799652338028 0.9175390005111694 -0.3918589949607849 0.06759099662303925
          0.9734820127487183 -0.16138899326324463 0.16213299334049225 0.7883269786834717 -0.5968610048294067 -0.1493220031261444
          0.5696660280227661 -0.7353600263595581 -0.36705100536346436 0.5581459999084473 -0.7769680023193359 -0.29119300842285156
          0.7254490256309509 -0.6530719995498657 -0.2173050045967102 0.8499889969825745 -0.52668297290802 -0.011086000129580498
          0.1623309999704361 -0.445048987865448 -0.8806700110435486 -0.038864001631736755 -0.4971590042114258 -0.8667880296707153
          0.16019399464130402 -0.6174190044403076 -0.7701500058174133 0.29998600482940674 -0.734978973865509 -0.6081230044364929
          0.22482000291347504 -0.7018340229988098 -0.6759330034255981 0.2752380073070526 -0.8045790195465088 -0.5262100100517273
          0.462677001953125 -0.7788980007171631 -0.42337700724601746 0.2423200011253357 -0.4108850061893463 -0.8788939714431763
          0.7473610043525696 0.18054799735546112 0.6394169926643372 0.9515870213508606 0.057718001306056976 0.30191200971603394
          -0.5403299927711487 0.26939699053764343 0.7971630096435547 0.1191449984908104 0.2894049882888794 0.9497630000114441
          -0.5466870069503784 0.23134399950504303 0.8047440052032471 0.43933600187301636 0.11081399768590927 0.8914620280265808
          -0.3877530097961426 0.17226499319076538 0.9055230021476746 -0.5594980120658875 0.08943700045347214 0.8239920139312744