<?xml version="1.0"?>
<VTKFile type="PolyData" version="0.1" byte_order="LittleEndian" header_type="UInt32" compressor="vtkZLibDataCompressor">
  <PolyData>
    <Piece NumberOfPoints="4230" NumberOfVerts="0" NumberOfLines="0" NumberOfStrips="0" NumberOfPolys="8456">
      <PointData Normals="Normals">
        <DataArray type="Float32" Name="Normals" NumberOfComponents="3" format="ascii" RangeMin="0.999999250139552" RangeMax="1.000000808259559">
          0.07273600250482559 -0.9478679895401001 0.31025201082229614 0.2835249900817871 -0.8581950068473816 0.42792001366615295
          0.13250300288200378 -0.8681309819221497 0.47832098603248596 0.00977800041437149 -0.86667400598526 0.4987800121307373
          0.352385014295578 -0.8941680192947388 0.2762030065059662 -0.00021600000036414713 -0.9945210218429565 0.10453899949789047
          0.16071200370788574 -0.9721869826316833 0.17036199569702148 -0.03195900097489357 -0.9392560124397278 0.34172600507736206
          -0.16681300103664398 -0.9687899947166443 0.18335700035095215 -0.1062769964337349 -0.9894289970397949 0.09866400063037872
          0.23698000609874725 -0.8098959922790527 0.5365719795227051 0.5674160122871399 -0.7349110245704651 0.37140899896621704
          0.44129401445388794 -0.7807700037956238 0.442331999540329 0.3374679982662201 -0.7866309881210327 0.5170360207557678
          0.1433050036430359 -0.7475550174713135 0.6485570073127747 -0.16922099888324738 -0.7712259888648987 0.6136569976806641
          -0.23874400556087494 -0.9059169888496399 0.3497380018234253 0.3208310008049011 -0.9412260055541992 0.10564599931240082
          0.4953010082244873 -0.8588290214538574 0.13072499632835388 0.15846000611782074 -0.9873470067977905 0.006056999787688255
          0.034742001444101334 -0.9988880157470703 -0.031860001385211945 -0.14472299814224243 -0.9846940040588379 -0.09712199866771698
          -0.30803999304771423 -0.9406899809837341 0.14217400550842285 -0.3134390115737915 -0.9472079873085022 -0.06748200207948685
          0.33019301295280457 -0.7148529887199402 0.6164069771766663 0.7558910250663757 -0.5342720150947571 0.3783949911594391
          0.6468560099601746 -0.6326659917831421 0.42580699920654297 0.6446080207824707 -0.6344540119171143 0.42655500769615173
          0.6845849752426147 -0.7023720145225525 0.1949779987335205 0.5130890011787415 -0.6557809710502625 0.5537959933280945
          -0.10512500256299973 -0.732250988483429 0.672872006893158 0.36750900745391846 -0.66873699426651 0.6463189721107483
          0.16399799287319183 -0.7277179956436157 0.6659809947013855 -0.036302000284194946 -0.669979989528656 0.7414910197257996
          0.11492600291967392 -0.6368799805641174 0.7623479962348938 0.07674799859523773 -0.7086510062217712 0.7013720273971558
          -0.26589301228523254 -0.7420430183410645 0.6153650283813477 -0.3559820055961609 -0.8014209866523743 0.4806250035762787
          -0.3751649856567383 -0.7428680062294006 0.5544350147247314 -0.43413498997688293 -0.8676480054855347 0.24231000244617462
          -0.2732050120830536 -0.9450550079345703 0.1795250028371811 0.33632099628448486 -0.9416710138320923 -0.012013999745249748
          0.6094740033149719 -0.7926750183105469 0.014425000175833702 0.44797301292419434 -0.8924070000648499 -0.05412299931049347
          0.1983889937400818 -0.9662709832191467 -0.16420400142669678 0.02058899961411953 -0.9821630120277405 -0.1869020015001297
          -0.18700000643730164 -0.9460890293121338 -0.2644749879837036 -0.41152098774909973 -0.9093310236930847 0.06138699874281883
          -0.3664869964122772 -0.9061160087585449 -0.21128499507904053 -0.4930019974708557 -0.8642709851264954 -0.0999239981174469
          0.42353299260139465 -0.5864430069923401 0.6904379725456238 0.6609799861907959 -0.5815230011940002 0.47427499294281006
          0.8533539772033691 -0.3959519863128662 0.3391309976577759 0.9142730236053467 -0.2847580015659332 0.28812700510025024
          0.8742619752883911 -0.39034101366996765 0.28861600160598755 0.681302011013031 -0.5710539817810059 0.45795801281929016
          0.7729560136795044 -0.6288639903068542 0.08407299965620041 0.6426990032196045 -0.512935996055603 0.5690649747848511
          0.5190349817276001 -0.5213950276374817 0.6773110032081604 -0.21298600733280182 -0.733879029750824 0.6450260281562805
          0.27157801389694214 -0.6409590244293213 0.717926025390625 0.40973401069641113 -0.5147789716720581 0.7530739903450012
          0.04763000085949898 -0.6010640263557434 0.7977799773216248 -0.16123899817466736 -0.6521239876747131 0.7407680153846741
          -0.08313799649477005 -0.5359290242195129 0.840158998966217 -0.016488999128341675 -0.5042740106582642 0.8633859753608704
          0.31508100032806396 -0.48864999413490295 0.8136000037193298 0.16267600655555725 -0.4779820144176483 0.8631740212440491
          -0.5143120288848877 -0.7828900218009949 0.3500939905643463 -0.6179779767990112 -0.7120280265808105 0.33334699273109436
          -0.31822100281715393 -0.6931009888648987 0.6467970013618469 -0.5497090220451355 -0.6613360047340393 0.5103480219841003
          -0.6290320158004761 -0.7704650163650513 0.10345599800348282 0.3382929861545563 -0.9090830087661743 -0.24316099286079407
          0.49637699127197266 -0.8568379878997803 -0.13942599296569824 0.5532500147819519 -0.817559003829956 -0.15972299873828888
          0.7437270283699036 -0.6672319769859314 0.04088500142097473 0.7457259893417358 -0.6661040186882019 -0.014085999689996243
          0.08766800165176392 -0.9212179780006409 -0.379040002822876 -0.19661200046539307 -0.9144740104675293 -0.3536689877510071
          -0.4852440059185028 -0.8490509986877441 -0.2089270055294037 -0.428617000579834 -0.8537999987602234 -0.2954869866371155
          -0.6007959842681885 -0.7859020233154297 -0.14629599452018738 0.49024298787117004 -0.4459420144557953 0.748865008354187
          0.7387570142745972 -0.419624000787735 0.5274029970169067 0.7815290093421936 -0.43145298957824707 0.45062199234962463
          0.8646389842033386 -0.45033499598503113 0.22270500659942627 0.9201120138168335 -0.3585970103740692 0.15748600661754608
          0.9593030214309692 -0.19982799887657166 0.19951699674129486 0.8614490032196045 -0.4579460024833679 0.21952399611473083
          0.8907570242881775 -0.2010740041732788 0.4075799882411957 0.8571599721908569 -0.40025898814201355 0.3241429924964905
          0.9044809937477112 -0.4212479889392853 0.06682100147008896 0.8907110095024109 -0.44186100363731384 -0.10673599690198898
          0.6429849863052368 -0.4264490008354187 0.6361690163612366 0.4251919984817505 -0.34929001331329346 0.8349900245666504
          0.28210699558258057 -0.3919000029563904 0.8756880164146423 -0.1267549991607666 -0.5299580097198486 0.8384979963302612
          -0.29833900928497314 -0.6044489741325378 0.7386720180511475 -0.00025499999173916876 -0.4087119996547699 0.9126629829406738
          0.10959500074386597 -0.4070909917354584 0.9067890048027039 -0.7714470028877258 -0.583640992641449 0.2534410059452057
          -0.7277330160140991 -0.667801022529602 0.1563519984483719 -0.7176640033721924 -0.596688985824585 0.3590559959411621
          -0.7185739874839783 -0.5869569778442383 0.3730050027370453 -0.7254660129547119 -0.6076869964599609 0.3231329917907715
          -0.6697660088539124 -0.5312409996986389 0.5188419818878174 -0.6829969882965088 -0.47782498598098755 0.5524470210075378
          -0.5461220145225525 -0.5285800099372864 0.6498879790306091 -0.6969720125198364 -0.7149009704589844 0.05609700083732605
          0.4226889908313751 -0.8497229814529419 -0.3151260018348694 0.28770801424980164 -0.8573729991912842 -0.4267730116844177
          0.7162079811096191 -0.6792809963226318 -0.16007100045681 0.49886199831962585 -0.7860400080680847 -0.36507299542427063
          0.8457610011100769 -0.5300040245056152 0.06151999905705452 0.8801180124282837 -0.47252801060676575 -0.045928001403808594
          0.07082899659872055 -0.881659984588623 -0.4665380120277405 -0.22798700630664825 -0.8813819885253906 -0.41374799609184265
          -0.4447459876537323 -0.7632529735565186 -0.4686639904975891 -0.5216410160064697 -0.7676609754562378 -0.3722720146179199
          -0.5147200226783752 -0.7583519816398621 -0.3999580144882202 -0.6073409914970398 -0.7045199871063232 -0.36713600158691406
          -0.7171459794044495 -0.6968830227851868 -0.007449000142514706 -0.736644983291626 -0.6634129881858826 -0.13129399716854095
          0.698140025138855 -0.3297959864139557 0.6354799866676331 0.7248939871788025 -0.36327600479125977 0.5852850079536438
          0.7158470153808594 -0.38412800431251526 0.5831030011177063 0.780335009098053 -0.4770820140838623 0.4043140113353729
          0.7687870264053345 -0.6326959729194641 0.09306800365447998 0.8372849822044373 -0.5368779897689819 -0.10351800173521042
          0.784850001335144 -0.5981760025024414 0.16185300052165985 0.7518550157546997 -0.437173992395401 0.49355098605155945
          0.6481099724769592 -0.47760701179504395 0.5931649804115295 0.6629149913787842 -0.5369439721107483 0.5217620134353638
          0.8035569787025452 -0.54544597864151 0.2382960021495819 0.8477529883384705 -0.5276139974594116 0.05420900136232376
          0.30208298563957214 -0.3261910080909729 0.8957369923591614 0.3787890076637268 -0.25057199597358704 0.8909170031547546
          0.6528440117835999 -0.22862499952316284 0.7221670150756836 0.4755440056324005 -0.18380500376224518 0.8602749705314636
          0.10774300247430801 -0.3741160035133362 0.921101987361908 0.1613209992647171 -0.34365901350975037 0.9251350164413452
          -0.11736200004816055 -0.5023890137672424 0.8566399812698364 -0.19455499947071075 -0.4929850101470947 0.848006010055542
          -0.35629698634147644 -0.5208759903907776 0.7757189869880676 0.0826599970459938 -0.3532859981060028 0.9318559765815735
          0.06034500151872635 -0.37841299176216125 0.9236680269241333 -0.06099500134587288 -0.36711201071739197 0.9281749725341797
          -0.8554009795188904 -0.4882560074329376 0.17290499806404114 -0.8688070178031921 -0.4236449897289276 0.2563199996948242
          -0.8618280291557312 -0.35885998606681824 0.3584290146827698 -0.8402630090713501 -0.44745001196861267 0.30618101358413696
          -0.7710379958152771 -0.6256380081176758 0.11865200102329254 -0.8428549766540527 -0.42593300342559814 0.3289009928703308
          -0.8088060021400452 -0.40031901001930237 0.43078601360321045 -0.7652170062065125 -0.40126100182533264 0.5034210085868835
          -0.8894249796867371 -0.2664540112018585 0.3713819980621338 -0.7986559867858887 -0.35118401050567627 0.48868998885154724
          -0.546970009803772 -0.5051230192184448 0.667589008808136 0.43177300691604614 -0.7968950271606445 -0.4225279986858368
          0.19439099729061127 -0.8037509918212891 -0.5623130202293396 0.21126000583171844 -0.8380209803581238 -0.5030800104141235
          0.30460500717163086 -0.773688018321991 -0.5555390119552612 0.7551019787788391 -0.6404229998588562 -0.14028200507164001
          0.8220160007476807 -0.5548909902572632 0.12801000475883484 0.49980899691581726 -0.7560539841651917 -0.4225800037384033
          0.6525089740753174 -0.6898229718208313 -0.3136509954929352 0.8128669857978821 -0.5654609799385071 0.13964499533176422
          -0.17974799871444702 -0.822750985622406 -0.5392320156097412 0.12630699574947357 -0.8038089871406555 -0.5813239812850952
          -0.49554601311683655 -0.7430899739265442 -0.4497239887714386 -0.4288029968738556 -0.7898139953613281 -0.43854400515556335
          -0.4257200062274933 -0.8291550278663635 -0.3623040020465851 -0.47423699498176575 -0.6621040105819702 -0.5802739858627319
          -0.5451599955558777 -0.5986689925193787 -0.58685302734375 -0.7280110120773315 -0.625872015953064 -0.27979201078414917
          -0.6467859745025635 -0.6109039783477783 -0.45657798647880554 -0.8042510151863098 -0.5904380083084106 0.0675560012459755
          -0.8648139834403992 -0.49198800325393677 -0.10022599995136261 -0.8418229818344116 -0.5397210121154785 0.005942000076174736
          0.7725020051002502 -0.1749970018863678 0.6104230284690857 0.7440540194511414 -0.3390829861164093 0.5756790041923523
          0.7390310168266296 -0.3814930021762848 0.5552449822425842 0.7426599860191345 -0.6376109719276428 0.20471400022506714
          0.7831029891967773 -0.39816099405288696 0.4777210056781769 0.5894690155982971 -0.8026360273361206 -0.09111099690198898
          0.5864189863204956 -0.7866849899291992 0.19297300279140472 0.5888590216636658 -0.7774059772491455 -0.22110100090503693
          0.5338900089263916 -0.5975940227508545 0.5982000231742859 0.5474269986152649 -0.6201350092887878 0.561922013759613
          0.7562810182571411 -0.5504140257835388 0.3536730110645294 0.7861509919166565 -0.5939649939537048 0.17080000042915344
          0.7963169813156128 -0.6034150123596191 -0.042052000761032104 0.3043319880962372 -0.22286300361156464 0.9261289834976196
          0.4407239854335785 -0.13722799718379974 0.8870909810066223 0.6046329736709595 -0.16170500218868256 0.7799170017242432
          0.7490379810333252 -0.16691599786281586 0.6411569714546204 0.6490470170974731 -0.09927999973297119 0.7542420029640198
          0.5312749743461609 -0.0581899993121624 0.8451989889144897 0.5077189803123474 -0.058490999042987823 0.8595349788665771
          0.1646600067615509 -0.27081799507141113 0.9484429955482483 -0.2631419897079468 -0.36476901173591614 0.8931400179862976
          -0.32564398646354675 -0.44333600997924805 0.8351100087165833 -0.4910379946231842 -0.47408899664878845 0.7308359742164612
          0.06348299980163574 -0.34360000491142273 0.9369680285453796 -0.1318719983100891 -0.2571919858455658 0.957319974899292
          0.05501199886202812 -0.23930299282073975 0.969385027885437 -0.8840489983558655 -0.4289200007915497 0.18569999933242798
          -0.9369289875030518 -0.26430800557136536 0.2287050038576126 -0.9033730030059814 -0.18246999382972717 0.3881010115146637
          -0.9349200129508972 -0.214478000998497 0.28270798921585083 -0.8996800184249878 -0.14436699450016022 0.4119879901409149
          -0.8539919853210449 -0.1127920001745224 0.5079129934310913 -0.9496129751205444 -0.1812710016965866 0.25568699836730957
          -0.9123280048370361 -0.22416099905967712 0.34265199303627014 -0.9016270041465759 -0.22123700380325317 0.37164801359176636
          -0.9744489789009094 -0.09571299701929092 0.20319600403308868 -0.9723770022392273 -0.009072000160813332 0.23323899507522583
          -0.9068229794502258 -0.2327820062637329 0.35140499472618103 -0.7045140266418457 -0.391741007566452 0.5917760133743286
          0.20195500552654266 -0.6854490041732788 -0.6995519995689392 0.4040890038013458 -0.6868029832839966 -0.6041640043258667
          0.31937798857688904 -0.6743040084838867 -0.6658170223236084 0.8033379912376404 -0.5926430225372314 0.05850199982523918
          0.7831839919090271 -0.6007519960403442 -0.1603730022907257 0.687408983707428 -0.6480699777603149 -0.32783299684524536
          0.7690029740333557 -0.5787580013275146 0.27142998576164246 0.5481529831886292 -0.6941249966621399 -0.46660399436950684
          0.7517110109329224 -0.6551480293273926 0.07557900249958038 0.041397999972105026 -0.7154989838600159 -0.6973860263824463
          -0.1859380006790161 -0.7437930107116699 -0.6420270204544067 -0.3842490017414093 -0.7662400007247925 -0.5150039792060852
          -0.41083401441574097 -0.5429159998893738 -0.7324320077896118 -0.3182229995727539 -0.6915619969367981 -0.6484410166740417
          -0.514706015586853 -0.4987269937992096 -0.6973879933357239 -0.6696680188179016 -0.5087440013885498 -0.5410410165786743
          -0.613215982913971 -0.4378170073032379 -0.6574820280075073 -0.8070560097694397 -0.5402420163154602 -0.2383269965648651
          -0.8160169720649719 -0.442095011472702 -0.3723819851875305 -0.9083499908447266 -0.40181800723075867 0.11593899875879288
          -0.9487689733505249 -0.31578999757766724 0.010708999820053577 -0.9014779925346375 -0.39157700538635254 -0.18440499901771545
          0.7936050295829773 -0.2712880074977875 0.544605016708374 0.7969819903373718 -0.13963299989700317 0.5876420140266418
          0.8217719793319702 -0.015963999554514885 0.5695930123329163 0.6891559958457947 -0.022130999714136124 0.7242749929428101
          0.8053539991378784 -0.32289400696754456 0.4971359968185425 0.781711995601654 -0.4911459982395172 0.384319007396698
          0.6908910274505615 -0.7207739949226379 -0.05616199970245361 0.5355790257453918 -0.7747880220413208 0.3359439969062805
          0.6038910150527954 -0.7821810245513916 0.15332500636577606 0.7241870164871216 -0.6523540019989014 0.22357900440692902
          0.8681529760360718 -0.4325529932975769 0.2433290034532547 0.9026719927787781 -0.3721950054168701 0.21599699556827545
          0.8411579728126526 -0.5192829966545105 0.1509920060634613 0.2557840049266815 -0.18174999952316284 0.9494950175285339
          0.22415800392627716 -0.20712000131607056 0.9522889852523804 0.40904700756073 0.0007379999733529985 0.912513017654419
          0.37285301089286804 -0.09667599946260452 0.9228399991989136 0.24811699986457825 -0.09657999873161316 0.9639040231704712
          0.5832509994506836 -0.06476099789142609 0.8097059726715088 0.6655160188674927 -0.09861599653959274 0.7398409843444824
          0.5900279879570007 -0.04050999879837036 0.8063660264015198 0.6655899882316589 -0.05144200101494789 0.7445430159568787
          0.7013220191001892 0.04453499987721443 0.7114520072937012 0.5298550128936768 -0.02149200066924095 0.847815990447998
          0.370620995759964 -0.030257999897003174 0.9282910227775574 0.1701429933309555 -0.19670000672340393 0.9655879735946655
          -0.4094400107860565 -0.391059011220932 0.8242769837379456 -0.3882159888744354 -0.2815229892730713 0.8775150179862976
          -0.7420729994773865 -0.41774898767471313 0.5242260098457336 -0.5849120020866394 -0.43880799412727356 0.6821479797363281
          0.09030099958181381 -0.14351700246334076 0.9855189919471741 0.0030410001054406166 -0.14845499396324158 0.9889150261878967
          -0.07344099879264832 -0.18121600151062012 0.980696976184845 -0.2864679992198944 -0.22122600674629211 0.9321990013122559
          -0.9389269948005676 -0.20187999308109283 0.27867600321769714 -0.9121569991111755 -0.2162110060453415 0.3481709957122803
          -0.9416580200195312 -0.018143000081181526 0.33608299493789673 -0.8775339722633362 0.05965200066566467 0.47578999400138855
          -0.907014012336731 0.0005799999926239252 0.421099990606308 -0.9696170091629028 -0.01298999972641468 0.24428200721740723
          -0.935151994228363 0.11637099832296371 0.3345870077610016 -0.9851869940757751 -0.14543800055980682 0.09085799753665924
          -0.9933949708938599 0.032402001321315765 0.11007799953222275 -0.9508540034294128 0.15536600351333618 0.2678399980068207
          -0.9031620025634766 -0.2883000075817108 0.3180910050868988 0.15109799802303314 -0.5395519733428955 -0.8282830119132996
          0.29910099506378174 -0.5721449851989746 -0.7636680006980896 0.27503299713134766 -0.5777119994163513 -0.7685089707374573
          0.4488610029220581 -0.6430870294570923 -0.6204540133476257 0.8417530059814453 -0.538116991519928 -0.04337900131940842
          0.8393920063972473 -0.5309680104255676 0.11616300046443939 0.8022860288619995 -0.5635010004043579 -0.19698800146579742
          0.6211389899253845 -0.6389790177345276 -0.4537529945373535 0.7569829821586609 -0.5560879707336426 -0.3431380093097687
          0.5899180173873901 -0.6458119750022888 -0.48468801379203796 -0.04898099973797798 -0.63885098695755 -0.7677689790725708
          -0.22520999610424042 -0.6020579934120178 -0.7660329937934875 -0.3781700134277344 -0.4077869951725006 -0.8310819864273071
          -0.3072670102119446 -0.46069398522377014 -0.8326749801635742 -0.4795460104942322 -0.4048979878425598 -0.7785199880599976
          -0.825842022895813 -0.34032198786735535 -0.449629008769989 -0.5250229835510254 -0.3585450053215027 -0.7718780040740967
          -0.6618940234184265 -0.3158529996871948 -0.6798040270805359 -0.9679380059242249 -0.2409210056066513 -0.07109100371599197
          -0.9415280222892761 -0.2666670083999634 -0.20594699680805206 -0.9603009819984436 -0.21317900717258453 0.17993299663066864
          0.8407400250434875 -0.1335889995098114 0.5246999859809875 0.8270170092582703 -0.32337498664855957 0.4598599970340729
          0.8331999778747559 -0.2678529918193817 0.4837689995765686 0.8753370046615601 0.003582000033929944 0.48350000381469727
          0.8793200254440308 -0.003126000054180622 0.4762209951877594 0.807125985622406 0.061489999294281006 0.5871689915657043
          0.8653889894485474 0.02507299929857254 0.5004730224609375 0.7853109836578369 -0.3299570083618164 0.5238469839096069
          0.8535060286521912 -0.33743301033973694 0.39707401394844055 0.7958980202674866 -0.5415650010108948 0.2706559896469116
          0.8003119826316833 -0.31288498640060425 0.5114730000495911 0.8934850096702576 -0.2669160068035126 0.3611670136451721
          0.8974859714508057 -0.40153399109840393 0.18245600163936615 0.9431740045547485 -0.2587850093841553 0.20845499634742737
          0.9742289781570435 -0.19139300286769867 0.11936099827289581 0.9504849910736084 -0.25369301438331604 0.17949199676513672
          0.20352999866008759 -0.15481899678707123 0.966750979423523 0.35972100496292114 0.24089600145816803 0.9014269709587097
          0.3324509859085083 0.072393998503685 0.9403380155563354 0.2662389874458313 0.08141099661588669 0.9604629874229431
          0.26889199018478394 0.05355700105428696 0.961679995059967 0.22582800686359406 -0.07774099707603455 0.9710599780082703
          0.7683529853820801 0.009917999617755413 0.6399490237236023 0.6886489987373352 -0.04399299994111061 0.7237589955329895
          0.5192570090293884 -0.09499400109052658 0.8493220210075378 0.26220300793647766 -0.05890800058841705 0.9632130265235901
          0.32978901267051697 -0.04247000068426132 0.9430990219116211 0.2320539951324463 -0.031599000096321106 0.9721900224685669
          -0.5894730091094971 -0.2827250063419342 0.7566949725151062 -0.5972710251808167 -0.3671970069408417 0.7130460143089294
          -0.6484190225601196 -0.2624189853668213 0.7146250009536743 -0.5922719836235046 -0.24718700349330902 0.766884982585907
          -0.7798240184783936 -0.34877699613571167 0.5198360085487366 0.23769399523735046 0.033041998744010925 0.9707779884338379
          0.0809049978852272 -0.07599599659442902 0.9938200116157532 -0.23147200047969818 -0.23468400537967682 0.9441099762916565
          -0.24586500227451324 -0.23970100283622742 0.9391980171203613 0.04634400084614754 -0.09774400293827057 0.9941319823265076
          -0.5019270181655884 -0.25769299268722534 0.8256289958953857 -0.9056370258331299 0.07126899808645248 0.4180220067501068
          -0.856673002243042 0.07762199640274048 0.5099869966506958 -0.9072949886322021 -0.05038600042462349 0.4174650013446808
          -0.8978139758110046 0.15611900389194489 0.41177400946617126 0.9890120029449463 0.07570400089025497 0.1269800066947937
          0.8114609718322754 0.2662760019302368 0.5202199816703796 -0.9303169846534729 -0.23485499620437622 0.28169599175453186
          -0.956508994102478 -0.18383699655532837 0.22648200392723083 -0.9812139868736267 -0.18085399270057678 0.06715799868106842
          -0.9941849708557129 -0.10566099733114243 0.020796999335289 -0.9770159721374512 0.07398699969053268 0.19991600513458252
          0.15976999700069427 0.3769110143184662 0.9123659729957581 0.1982019990682602 -0.4865629971027374 -0.8508660197257996
          -0.0006890000076964498 -0.5573509931564331 -0.8302770256996155 -0.00956599973142147 -0.5115209817886353 -0.8592169880867004
          0.047623999416828156 -0.415800005197525 -0.9082080125808716 0.1749120056629181 -0.4943830072879791 -0.8514639735221863
          0.3330869972705841 -0.6049739718437195 -0.7232289910316467 0.144227996468544 -0.5059469938278198 -0.8504210114479065
          0.5612810254096985 -0.5931370258331299 -0.5771939754486084 0.8558070063591003 -0.4946630001068115 -0.15133799612522125
          0.915913999080658 -0.40089699625968933 0.019558999687433243 0.9044079780578613 -0.4082930088043213 0.12386500090360641
          0.8862929940223694 -0.42249900102615356 -0.1896820068359375 0.9012960195541382 -0.41335800290107727 -0.12961800396442413
          0.5762689709663391 -0.606141984462738 -0.5481839776039124 0.6511710286140442 -0.6507520079612732 -0.3905099928379059
          0.7663030028343201 -0.48850399255752563 -0.41730400919914246 -0.10939399898052216 -0.5905470252037048 -0.7995539903640747
          -0.18487200140953064 -0.4818490147590637 -0.8565300107002258 -0.25931599736213684 -0.3749150037765503 -0.8900529742240906
          -0.45285099744796753 -0.30153000354766846 -0.8390510082244873 -0.3468320071697235 -0.32850199937820435 -0.8785179853439331
          -0.9519810080528259 -0.20581799745559692 -0.22665199637413025 -0.8501409888267517 -0.2475070059299469 -0.4647580087184906
          -0.49800100922584534 -0.28993499279022217 -0.8172709941864014 -0.6276620030403137 -0.272940993309021 -0.7290700078010559
          -0.7860879898071289 -0.2505109906196594 -0.5650749802589417 -0.9723420143127441 -0.06515300273895264 0.22429099678993225
          -0.9864370226860046 -0.16410399973392487 -0.0033420000690966845 -0.9777600169181824 -0.05739999935030937 0.2017199993133545
          0.8641440272331238 -0.19757799804210663 0.46283599734306335 0.8733699917793274 -0.10815799981355667 0.47489601373672485
          0.8515110015869141 -0.24295000731945038 0.4646550118923187 0.9010379910469055 0.06745799630880356 0.4284619987010956
          0.9177280068397522 -0.01854800060391426 0.3967770040035248 0.903203010559082 0.042080000042915344 0.42714598774909973
          0.8425269722938538 -0.08310099691152573 0.5322049856185913 0.9374160170555115 -0.19005200266838074 0.2917740046977997
          0.9328389763832092 -0.308214008808136 0.18658900260925293 0.9637560248374939 -0.2336219996213913 0.12882399559020996
          0.9854869842529297 -0.15926000475883484 0.058747999370098114 0.9791989922523499 -0.165351003408432 0.11759699881076813
          0.9950569868087769 0.027890000492334366 0.09530899673700333 0.9900019764900208 0.01693199947476387 0.14003099501132965
          0.9701589941978455 0.017733000218868256 0.24181999266147614 0.967756986618042 -0.09283699840307236 0.23415400087833405
          0.9627019762992859 -0.0543069988489151 0.2650560140609741 0.4079670011997223 0.22466200590133667 0.8849239945411682
          0.40672001242637634 0.2586899995803833 0.8761609792709351 0.41207098960876465 0.06957700103521347 0.9084910154342651
          0.7215560078620911 -0.12503500282764435 0.6809719800949097 0.7851380109786987 -0.09817899763584137 0.61149001121521
          0.6549140214920044 -0.12146800011396408 0.7458770275115967 0.6679909825325012 -0.17565099895000458 0.7231420278549194
          0.40539801120758057 -0.08979299664497375 0.9097189903259277 0.5602740049362183 -0.16368399560451508 0.811972975730896
          0.34241798520088196 0.02742299996316433 0.9391469955444336 0.1586039960384369 0.09901999682188034 0.9823639988899231
          0.27418598532676697 0.016961000859737396 0.9615269899368286 0.19191299378871918 0.0881429985165596 0.9774460196495056
          -0.8731899857521057 -0.1981469988822937 0.4452820122241974 -0.8274070024490356 -0.23886999487876892 0.5082700252532959
          -0.8435930013656616 -0.2559730112552643 0.47204700112342834 -0.7538300156593323 -0.20354899764060974 0.6247460246086121
          -0.7783259749412537 -0.23724399507045746 0.5813120007514954 0.25301000475883484 0.01836100034415722 0.9672889709472656
          0.45673999190330505 0.11026900261640549 0.8827400207519531 -0.3404349982738495 -0.20931899547576904 0.9166730046272278
          -0.49258899688720703 -0.29950401186943054 0.817101001739502 -0.06652200222015381 -0.07921099662780762 0.9946359992027283
          0.1751130074262619 0.07407700270414352 0.9817579984664917 -0.7226359844207764 -0.2197989970445633 0.6553509831428528
          -0.863647997379303 0.20387500524520874 0.46102699637413025 -0.8917940258979797 0.12299899756908417 0.4354020059108734
          -0.8934100270271301 0.1088080033659935 0.4358670115470886 -0.8802589774131775 0.16228599846363068 0.4458790123462677
          -0.9433580040931702 -0.15442800521850586 0.2936460077762604 -0.9742730259895325 -0.20936499536037445 -0.08341799676418304
          -0.9617249965667725 -0.24193499982357025 0.12865999341011047 -0.964339017868042 -0.21807800233364105 -0.1499740034341812
          -0.9549819827079773 0.060965001583099365 0.2903299927711487 -0.9623540043830872 -0.02748899906873703 0.2704069912433624
          -0.9801949858665466 -0.19766800105571747 -0.012082000263035297 -0.12723499536514282 -0.4028330147266388 -0.9063869714736938
          0.09048700332641602 -0.3674589991569519 -0.9256269931793213 0.0783810019493103 -0.2789379954338074 -0.9571049809455872
          -0.15756599605083466 -0.2584959864616394 -0.9530749917030334 -0.0133050000295043 -0.20807400345802307 -0.9780229926109314
          0.4939480125904083 -0.7193329930305481 -0.48844200372695923 0.16422699391841888 -0.5346410274505615 -0.8289690017700195
          0.24698400497436523 -0.5717129707336426 -0.7823960185050964 0.41069599986076355 -0.5822769999504089 -0.7016280293464661
          0.01736300066113472 -0.36712899804115295 -0.9300079941749573 0.9735580086708069 -0.22361299395561218 0.04671800136566162
          0.9542070031166077 -0.2988879978656769 -0.01244600024074316 0.9675149917602539 -0.24973200261592865 -0.03934299945831299
          0.9037119746208191 -0.3719010055065155 -0.21211999654769897 0.5417060256004333 -0.6621760129928589 -0.5177620053291321
          0.5480719804763794 -0.5715060234069824 -0.6107349991798401 0.5512440204620361 -0.5608500242233276 -0.6177200078964233