<?xml version="1.0"?>
<VTKFile type="PolyData" version="0.1" byte_order="LittleEndian" header_type="UInt32" compressor="vtkZLibDataCompressor">
  <PolyData>
    <Piece NumberOfPoints="3558" NumberOfVerts="0" NumberOfLines="0" NumberOfStrips="0" NumberOfPolys="7126">
      <PointData Normals="Normals">
        <DataArray type="Float32" Name="Normals" NumberOfComponents="3" format="ascii" RangeMin="0.9999992043416631" RangeMax="1.0000007933826291">
          0.013398000039160252 0.24578900635242462 0.9692310094833374 -0.014859000220894814 0.2385219931602478 0.9710239768028259
          0.1822420060634613 0.06082100048661232 0.9813709855079651 0.1844629943370819 0.14699099957942963 0.9717850089073181
          -0.09319599717855453 0.27213600277900696 0.957735002040863 0.161298006772995 0.2498999983072281 0.9547420144081116
          0.3559130132198334 0.15331900119781494 0.9218559861183167 0.25503700971603394 -0.04623100161552429 0.9658250212669373
          -0.08346100151538849 0.3470410108566284 0.934128999710083 -0.061517998576164246 0.1983799934387207 0.9781929850578308
          0.1428389996290207 -0.08818800002336502 0.9858090281486511 -0.011521999724209309 0.3191559910774231 0.9476320147514343
          0.42064499855041504 -0.30028000473976135 0.8560900092124939 0.3399440050125122 -0.07335399836301804 0.9375810027122498
          0.4110330045223236 0.018897000700235367 0.911424994468689 0.36625000834465027 0.11599799990653992 0.9232580065727234
          -0.009757000021636486 0.2907769978046417 0.9567409753799438 0.07409100234508514 0.17725799977779388 0.9813719987869263
          -0.11366099864244461 0.1502790004014969 0.982088029384613 -0.1637219935655594 0.265529990196228 0.950098991394043
          0.5589339733123779 0.11614400148391724 0.821038007736206 0.40038999915122986 0.13777999579906464 0.9059280157089233
          0.620061993598938 -0.008213999681174755 0.7845100164413452 0.5660290122032166 -0.0052280002273619175 0.8243690133094788
          0.7029979825019836 0.011354000307619572 0.7111009955406189 0.30240800976753235 -0.23049399256706238 0.9248899817466736
          0.06472600251436234 0.3486360013484955 0.9350209832191467 -0.05772300064563751 0.4631839990615845 0.8843809962272644
          0.15869300067424774 -0.12207800149917603 0.9797520041465759 0.23037700355052948 -0.43884798884391785 0.8685269951820374
          0.3347780108451843 -0.5101950168609619 0.7922279834747314 0.05947300046682358 0.3398579955101013 0.9385949969291687
          0.11751999706029892 0.16380299627780914 0.9794679880142212 0.5798060297966003 -0.4454270005226135 0.6822159886360168
          0.4847150146961212 -0.7173759937286377 0.500423014163971 0.5705090165138245 -0.1866759955883026 0.7997940182685852
          0.6146389842033386 -0.09255000203847885 0.7833600044250488 0.5615820288658142 0.010452000424265862 0.8273550271987915
          -0.037092000246047974 0.4100489914417267 0.911309003829956 -0.23405900597572327 0.35996299982070923 0.9031299948692322
          0.0461059994995594 0.08264199644327164 0.9955120086669922 0.2998870015144348 0.06784699857234955 0.9515590071678162
          -0.1909330040216446 0.0701259970664978 0.9790949821472168 -0.004182999953627586 0.10213200002908707 0.9947620034217834
          -0.20546700060367584 0.1378059983253479 0.9689130187034607 -0.21342800557613373 0.21437400579452515 0.9531480073928833
          -0.26887500286102295 0.25705400109291077 0.9282400012016296 0.6520640254020691 0.045336998999118805 0.7568070292472839
          0.8285040259361267 -0.03431199863553047 0.5589309930801392 0.5786790251731873 0.0262449998408556 0.8151329755783081
          0.7750939726829529 -0.16148999333381653 0.6108599901199341 0.7896509766578674 -0.11415000259876251 0.6028450131416321
          0.7594519853591919 -0.19868800044059753 0.6194800138473511 0.9153739809989929 -0.1426749974489212 0.376475989818573
          -0.04177999868988991 0.4152669906616211 0.9087399840354919 0.3621389865875244 -0.6467210054397583 0.6712729930877686
          0.3406350016593933 -0.16668200492858887 0.9253029823303223 0.22494299709796906 -0.5686900019645691 0.7911970019340515
          0.2516210079193115 -0.7076339721679688 0.6602579951286316 0.355338990688324 -0.8020319938659668 0.4800820052623749
          -0.01001300010830164 0.2640399932861328 0.964460015296936 0.25394898653030396 0.23153899610042572 0.9390950202941895
          0.5728719830513 -0.7549700140953064 0.31912198662757874 0.6571409702301025 -0.5915219783782959 0.46719101071357727
          0.6946840286254883 -0.3486270010471344 0.6291850209236145 0.39586499333381653 -0.8554630279541016 0.3338789939880371
          0.4672040045261383 -0.8363170027732849 0.28686898946762085 -0.22786100208759308 0.4614819884300232 0.8573880195617676
          -0.1983489990234375 0.27639299631118774 0.9403529763221741 -0.16286499798297882 0.29565900564193726 0.9413080215454102
          -0.08053600043058395 0.4100390076637268 0.9085050225257874 -0.021021999418735504 0.25371798872947693 0.9670500159263611
          -0.31455498933792114 0.44048500061035156 0.8408499956130981 -0.4132840037345886 0.3790839910507202 0.8279439806938171
          0.2858409881591797 0.06830199807882309 0.955839991569519 0.564191997051239 0.035356998443603516 0.8248860239982605
          -0.1746239960193634 0.0013389999512583017 0.9846339821815491 -0.2491379976272583 0.0691550001502037 0.9659960269927979
          -0.24735699594020844 0.013597000390291214 0.9688289761543274 -0.26663199067115784 -0.007788000162690878 0.9637669920921326
          -0.04427399858832359 0.008747999556362629 0.9989809989929199 0.06898300349712372 0.1006539985537529 0.9925270080566406
          0.2828800082206726 0.11449699848890305 0.9522969722747803 -0.3221519887447357 0.11349699646234512 0.9398599863052368
          -0.3161819875240326 0.20683200657367706 0.9258779883384705 -0.41289401054382324 0.2952210009098053 0.8616049885749817
          -0.5680530071258545 0.3274349868297577 0.7550510168075562 -0.5106599926948547 0.26111701130867004 0.8191729784011841
          0.8131669759750366 -0.022464999929070473 0.5815960168838501 0.9593369960784912 -0.12928299605846405 0.250914990901947
          0.7929720282554626 -0.0014649999793618917 0.6092560291290283 0.8633379936218262 -0.2426539957523346 0.442454993724823
          0.8802170157432556 -0.19293799996376038 0.43358099460601807 0.7605850100517273 -0.40119099617004395 0.5104470252990723
          0.8660110235214233 -0.3260580003261566 0.3790929913520813 0.9659550189971924 -0.1413709968328476 0.2166689932346344
          0.4001150131225586 -0.7590339779853821 0.5135899782180786 0.47222599387168884 -0.8643079996109009 0.17312900722026825
          0.15917399525642395 -0.9579349756240845 0.23879599571228027 0.27585500478744507 -0.859745979309082 0.42981600761413574
          0.2868190109729767 -0.6118839979171753 0.73711097240448 0.20937800407409668 -0.3445500135421753 0.9151210188865662
          0.2848599851131439 -0.0020469999872148037 0.9585670232772827 0.08246800303459167 -0.009604999795556068 0.9965469837188721
          0.08199699968099594 0.13289600610733032 0.9877319931983948 0.5259929895401001 -0.7693889737129211 0.3624520003795624
          0.5031219720840454 -0.7210069894790649 0.47646400332450867 0.5826320052146912 -0.6900060176849365 0.4294550120830536
          0.7528979778289795 -0.5940319895744324 0.2833220064640045 0.165569007396698 -0.9432049989700317 0.2880130112171173
          0.37774398922920227 -0.7280809879302979 0.5720199942588806 -0.2975519895553589 0.37486299872398376 0.8780320286750793
          -0.3276180028915405 0.43316298723220825 0.8396639823913574 -0.3208619952201843 -0.059470001608133316 0.9452570080757141
          -0.1817300021648407 -0.2865839898586273 0.9406610131263733 -0.18074600398540497 -0.050501998513936996 0.9822319746017456
          -0.12309499830007553 0.23667100071907043 0.9637609720230103 -0.00598399993032217 0.006994000170379877 0.9999579787254333
          0.10701599717140198 -0.11909200251102448 0.9870989918708801 -0.4107840061187744 0.4126009941101074 0.8130289912223816
          -0.5747590065002441 0.34399300813674927 0.7425100207328796 -0.6715229749679565 0.3242169916629791 0.6662889719009399
          -0.6767939925193787 0.37321901321411133 0.634552001953125 0.5787659883499146 0.07647500187158585 0.8119000196456909
          0.7921220064163208 0.04366099834442139 0.6087989807128906 -0.12825199961662292 -0.12594600021839142 0.9837120175361633
          -0.27595800161361694 -0.20714600384235382 0.9385830163955688 -0.25699499249458313 0.004815999884158373 0.9664009809494019
          -0.2919529974460602 0.008666000328958035 0.9563940167427063 -0.3189519941806793 0.026585999876260757 0.9473980069160461
          -0.27681800723075867 0.10621999949216843 0.955033004283905 -0.35735100507736206 0.1039699986577034 0.9281650185585022
          -0.018748000264167786 -0.1056239977478981 0.9942290186882019 0.18267099559307098 0.10341999679803848 0.9777200222015381
          0.24632400274276733 -0.1012599989771843 0.9638829827308655 0.49114999175071716 0.17459799349308014 0.8533980250358582
          0.5970219969749451 0.13498300313949585 0.7907869815826416 -0.4387269914150238 0.15776599943637848 0.8846629858016968
          -0.5665910243988037 0.19132399559020996 0.8014799952507019 -0.36583399772644043 0.03373099863529205 0.9300680160522461
          -0.3200570046901703 0.024212000891566277 0.9470890164375305 -0.37478700280189514 0.15543800592422485 0.9139879941940308
          -0.3730419874191284 0.20530299842357635 0.9048150181770325 -0.6104170083999634 0.34817901253700256 0.7114499807357788
          -0.6806430220603943 0.3391450047492981 0.6493890285491943 -0.5153170228004456 0.2243030071258545 0.8271250128746033
          -0.48440200090408325 0.1896349936723709 0.8540449738502502 -0.5306349992752075 0.2160079926252365 0.8196139931678772
          0.9514200091362 -0.06608700007200241 0.3007200062274933 0.9857069849967957 -0.16804400086402893 0.011935999616980553
          0.9210990071296692 0.001484000007621944 0.38932499289512634 0.8429589867591858 -0.5148730278015137 0.15596699714660645
          0.9355340003967285 -0.21940499544143677 0.27683600783348083 0.9088540077209473 -0.11536599695682526 0.4008429944515228
          0.9618319869041443 0.011920000426471233 0.27338099479675293 0.9968559741973877 -0.07888700067996979 0.007472999859601259
          0.039799001067876816 -0.9084540009498596 0.41608598828315735 0.15006999671459198 -0.9647380113601685 -0.21623800694942474
          0.16322800517082214 -0.9832850098609924 -0.08066999912261963 0.5954549908638 -0.8030059933662415 -0.024802999570965767
          0.24872499704360962 -0.9614970088005066 0.11687300354242325 0.008983000181615353 -0.5428379774093628 0.8397889733314514
          -0.04034800082445145 -0.3069379925727844 0.9508739709854126 0.4646579921245575 -0.6665059924125671 0.5829780101776123
          0.6610940098762512 -0.7299020290374756 0.17377500236034393 0.5463989973068237 -0.7672610282897949 0.33579498529434204
          0.38815298676490784 -0.7697190046310425 0.5068240165710449 0.7692109942436218 -0.6298959851264954 0.1074490025639534
          0.012105000205338001 -0.9209139943122864 0.3895770013332367 0.3697640001773834 -0.8012229800224304 0.470441997051239
          0.28665199875831604 -0.6565309762954712 0.6977090239524841 0.17268100380897522 -0.7413070201873779 0.6485710144042969
          -0.3582710027694702 0.3871240019798279 0.8495740294456482 -0.44569501280784607 0.2296839952468872 0.8652179837226868
          -0.4284360110759735 0.04752799868583679 0.9023209810256958 -0.6185870170593262 0.15398499369621277 0.7704790234565735
          -0.45931100845336914 0.2501879930496216 0.8523139953613281 -0.5464929938316345 -0.3573490083217621 0.7573950290679932
          -0.4007030129432678 -0.6233819723129272 0.6714400053024292 -0.2229360044002533 -0.8012269735336304 0.5552800297737122
          -0.7673329710960388 0.2543930113315582 0.5886290073394775 -0.8485519886016846 0.08222699910402298 0.5226839780807495
          -0.8637539744377136 0.14511699974536896 0.4825670123100281 -0.6984900236129761 0.20388099551200867 0.685962975025177
          0.8210139870643616 0.10159700363874435 0.5617960095405579 0.9385370016098022 0.0919710025191307 0.3326990008354187
          0.0772010013461113 -0.22385799884796143 0.9715589880943298 0.11428699642419815 -0.0818059965968132 0.9900739789009094
          -0.29048100113868713 -0.04129999876022339 0.9559890031814575 -0.36707600951194763 -0.14130699634552002 0.9193950295448303
          -0.37992599606513977 0.030757000669836998 0.9245049953460693 -0.11818599700927734 -0.2150460034608841 0.9694259762763977
          -0.1190899983048439 -0.20942799746990204 0.9705449938774109 0.5791170001029968 -0.17282499372959137 0.7967150211334229
          -0.33111798763275146 -0.16180099546909332 0.9296129941940308 -0.05898600071668625 -0.30568400025367737 0.9503039717674255
          -0.23103800415992737 0.3399850130081177 0.9116089940071106 -0.30167800188064575 0.10768900066614151 0.9473090171813965
          -0.23965300619602203 0.2317740023136139 0.9427869915962219 -0.3582020103931427 0.29243600368499756 0.8866639733314514
          -0.35555601119995117 0.20519599318504333 0.9118520021438599 -0.47242000699043274 0.12438199669122696 0.8725529909133911
          -0.4099319875240326 0.30118998885154724 0.8609529733657837 -0.5450159907341003 0.2894099950790405 0.7868919968605042
          -0.5032870173454285 0.3875049948692322 0.7723619937896729 0.4220469892024994 -0.027584999799728394 0.9061539769172668
          0.78472900390625 0.13184499740600586 0.6056550145149231 0.6808590292930603 -0.09746699780225754 0.7258999943733215
          0.8858749866485596 0.3883099853992462 0.2538509964942932 0.9349420070648193 0.27772799134254456 0.22079500555992126
          0.7984650135040283 0.24924300611019135 0.5480250120162964 -0.41304901242256165 0.12722299993038177 0.9017789959907532
          -0.5572540163993835 0.05716300010681152 0.8283720016479492 -0.6393449902534485 0.26444000005722046 0.7220180034637451
          -0.6214280128479004 0.18079200387001038 0.7623260021209717 -0.6372609734535217 0.10379000008106232 0.7636269927024841
          -0.6963419914245605 0.2996259927749634 0.6521750092506409 -0.572517991065979 0.21017199754714966 0.7924969792366028
          -0.6272950172424316 0.031077999621629715 0.7781609892845154 -0.6752790212631226 0.11745200306177139 0.7281510233879089
          -0.5950310230255127 0.21927900612354279 0.7732110023498535 0.97776198387146 -0.004335000179708004 0.2096710056066513
          0.9861069917678833 -0.1661120057106018 -0.00044800000614486635 0.9627159833908081 -0.21541400253772736 0.16363100707530975
          0.9630190134048462 -0.11605899780988693 0.24315500259399414 0.7979949712753296 -0.6024670004844666 0.015437000431120396
          0.8544740080833435 -0.5139949917793274 0.07538899779319763 0.9079179763793945 -0.3745869994163513 0.1880660057067871
          0.9257820248603821 -0.1073400005698204 0.36250001192092896 0.8982729911804199 0.06265400350093842 0.43494901061058044
          0.9635189771652222 0.14273500442504883 0.2264000028371811 0.9866060018539429 0.11672499775886536 0.11394800245761871
          -0.0974230021238327 -0.9950850009918213 0.017743999138474464 -0.039441999047994614 -0.9886190295219421 -0.14518100023269653
          0.125559002161026 -0.9126240015029907 -0.389041006565094 0.0759269967675209 -0.6928539872169495 -0.7170699834823608
          -0.08144400268793106 -0.55520099401474 -0.82771897315979 0.22342899441719055 -0.8448320031166077 -0.4861460030078888
          0.056161001324653625 -0.8409209847450256 -0.5382360219955444 0.3843410015106201 -0.8718780279159546 0.30349698662757874
          0.4775950014591217 -0.8532440066337585 0.2094690054655075 0.7423930168151855 -0.6695330142974854 -0.024063000455498695
          0.24617700278759003 -0.8270779848098755 0.5053110122680664 0.14281399548053741 -0.7056909799575806 0.6939780116081238
          -0.5824429988861084 -0.8060280084609985 0.10525999963283539 -0.34442800283432007 -0.8447369933128357 0.409621000289917
          -0.5718880295753479 -0.8203279972076416 0.002461999887600541 -0.12578999996185303 -0.7150560021400452 0.6876569986343384
          -0.5997999906539917 -0.09324999898672104 0.7946979999542236 -0.8813210129737854 0.06508900225162506 0.4680140018463135
          -0.8489739894866943 -0.2989349961280823 0.4357540011405945 -0.7641649842262268 -0.2379470020532608 0.5995270013809204
          -0.5275120139122009 -0.7856540083885193 0.3232310116291046 -0.7002769708633423 -0.527895987033844 0.48055899143218994
          -0.30095401406288147 -0.9368289709091187 0.17826299369335175 -0.9336739778518677 -0.2285279929637909 0.2757300138473511
          -0.9223430156707764 -0.2721950113773346 0.2742150127887726 -0.943011999130249 -0.08453399688005447 0.3218420147895813
          -0.8312029838562012 0.03056499920785427 0.5551289916038513 -0.907588005065918 -0.08661899715662003 0.41082900762557983
          -0.7697129845619202 0.06009000167250633 0.6355550289154053 0.9276040196418762 0.32973799109458923 0.17556799948215485
          0.9550079703330994 0.19298000633716583 0.22520899772644043 0.1015390008687973 -0.15626099705696106 0.9824830293655396
          0.636991024017334 0.04217600077390671 0.7697160243988037 0.4889650046825409 -0.13946999609470367 0.8610820174217224
          -0.27501899003982544 0.1684200018644333 0.9465720057487488 -0.41783198714256287 0.02997799962759018 0.9080299735069275
          -0.3340449929237366 -0.08944900333881378 0.9383029937744141 -0.3988820016384125 0.36440199613571167 0.8414899706840515
          -0.2596380114555359 0.433351993560791 0.8630149960517883 -0.2500090003013611 -0.20849299430847168 0.9455299973487854
          0.017869999632239342 0.05103600025177002 0.998537003993988 0.24371500313282013 0.07927899807691574 0.9666010141372681
          0.2605760097503662 -0.042417000979185104 0.9645209908485413 -0.09709899872541428 -0.12321099638938904 0.9876189827919006
          0.7829139828681946 -0.13547000288963318 0.6072009801864624 0.9429979920387268 -0.036600999534130096 0.33077898621559143
          -0.2933410108089447 0.3749200105667114 0.879423975944519 -0.06901799887418747 0.821412980556488 0.5661429762840271
          -0.1816139966249466 0.74863600730896 0.6376209855079651 -0.16988399624824524 0.5495489835739136 0.8180069923400879
          -0.25155800580978394 0.5674120187759399 0.7840679883956909 -0.2606840133666992 0.5534769892692566 0.7910169959068298
          -0.3522869944572449 0.4139010012149811 0.8393930196762085 -0.5903599858283997 0.259211003780365 0.764385998249054
          -0.4126969873905182 0.49536100029945374 0.7643939852714539 -0.634643018245697 0.3975990116596222 0.6626790165901184
          -0.6371099948883057 0.5231649875640869 0.5660300254821777 -0.5252540111541748 0.6595439910888672 0.5376899838447571
          0.890500009059906 0.12508800625801086 0.43745100498199463 0.9392179846763611 0.11164499819278717 0.3246600031852722
          0.9484999775886536 0.28103798627853394 -0.14617300033569336 0.8628659844398499 0.3747360110282898 -0.3391689956188202
          0.794937014579773 0.6010730266571045 -0.08238600194454193 0.7147949934005737 0.5160999894142151 -0.47192099690437317
          -0.7323430180549622 -0.05580800026655197 0.6786450147628784 -0.7353659868240356 0.02754800021648407 0.6771100163459778
          -0.8472660183906555 -0.10438299924135208 0.5208110213279724 -0.6563950181007385 0.2142840027809143 0.7233449816703796
          -0.8554610013961792 0.15050800144672394 0.49551400542259216 -0.7207229733467102 0.12483599781990051 0.6818900108337402
          -0.8230429887771606 0.22406500577926636 0.5219150185585022 -0.8345350027084351 0.05881499871611595 0.5478060245513916
          -0.8628820180892944 0.02724199928343296 0.5046709775924683 -0.6829059720039368 0.29967400431632996 0.6662089824676514
          -0.6794610023498535 0.26625800132751465 0.6836950182914734 -0.7092880010604858 0.2937160134315491 0.6408140063285828
          -0.6670659780502319 0.34837400913238525 0.6585270166397095 -0.8535789847373962 -0.03137199953198433 0.5200179815292358
          -0.8943650126457214 -0.1319279968738556 0.4274420142173767 -0.749114990234375 -0.14356499910354614 0.6466959714889526
          -0.76705002784729 -0.1746309995651245 0.6173639893531799 0.9627119898796082 -0.008310999721288681 0.2704020142555237
          0.9729719758033752 0.0795459970831871 0.21678900718688965 0.9512460231781006 0.10994499921798706 0.28817299008369446
          0.8713799715042114 -0.016690999269485474 0.4903239905834198 0.8868920207023621 -0.1393350064754486 0.44046300649642944
          0.864234983921051 -0.184346005320549 0.468095988035202 0.8403000235557556 -0.25235500931739807 0.47980499267578125
          0.9368469715118408 -0.05051799863576889 0.3460719883441925 0.937388002872467 -0.03669700026512146 0.34634700417518616
          0.8072620034217834 -0.5795230269432068 -0.11171700060367584 0.8462420105934143 -0.5323320031166077 -0.02229199931025505
          0.9380170106887817 -0.34405699372291565 0.0418270006775856 0.9389380216598511 -0.16678300499916077 0.30096301436424255
          0.8774499893188477 0.02273700013756752 0.47912898659706116 0.8249859809875488 0.10996700078248978 0.5543509721755981
          0.8415600061416626 0.24949200451374054 0.4790929853916168 0.7743170261383057 0.3253679871559143 0.5427410006523132
          0.0335329994559288 -0.9687029719352722 -0.245947003364563 -0.14710800349712372 -0.9732249975204468 -0.1766130030155182
          0.21573300659656525 -0.8745359778404236 -0.43433400988578796 0.36508798599243164 -0.7070789933204651 -0.6055989861488342
          0.27503299713134766 -0.8517760038375854 -0.4459089934825897 0.3635239899158478 -0.9257649779319763 -0.10396700352430344
          0.05406799912452698 -0.6507030129432678 -0.7574049830436707 -0.25297799706459045 -0.9643650054931641 -0.07747399806976318
          0.2074349969625473 -0.9143199920654297 0.3478359878063202 0.22969399392604828 -0.9001060128211975 0.3702020049095154
          0.2895840108394623 -0.9242600202560425 0.24876700341701508 0.2658889889717102 -0.9325559735298157 0.24421699345111847
          0.5481370091438293 -0.8225839734077454 0.1513330042362213 0.6823329925537109 -0.7294909954071045 -0.04758699983358383
          0.7719730138778687 -0.6083099842071533 -0.18443900346755981 0.7813730239868164 -0.6139349937438965 -0.1119839996099472
          0.09589199721813202 -0.7985849976539612 0.5941939949989319 -0.7411929965019226 -0.6712499856948853 -0.007445999886840582
          -0.35582900047302246 -0.8948670029640198 -0.26944199204444885 -0.3720720112323761 -0.921118974685669 0.11446399986743927
          -0.69343101978302 -0.5988079905509949 0.4007270038127899 -0.45955801010131836 -0.43960899114608765 0.7717189788818359
          -0.07270000129938126 -0.7539399862289429 0.6529080271720886 -0.7571960091590881 -0.6484969854354858 0.07813700288534164
          -0.7679539918899536 -0.6191949844360352 0.16384099423885345 -0.39493799209594727 -0.9134529829025269 -0.09811600297689438
          -0.5976139903068542 -0.8005160093307495 -0.04506999999284744 -0.7950950264930725 -0.5905629992485046 0.1380539983510971
          -0.8908219933509827 -0.39866700768470764 0.21794800460338593 -0.9158610105514526 -0.2577179968357086 0.3078629970550537
          -0.8858759999275208 -0.18403199315071106 0.4258579909801483 -0.8791760206222534 -0.3019320070743561 0.36862900853157043
          0.653659999370575 0.7454079985618591 -0.13075099885463715 0.8157610297203064 0.5617619752883911 0.13768799602985382
          0.7120720148086548 0.38666200637817383 0.5860419869422913 0.6845700144767761 0.20287799835205078 0.7001469731330872
          0.9464210271835327 0.26607799530029297 0.18300500512123108 -0.3235430121421814 0.425123006105423 0.845333993434906
          -0.2137169986963272 0.1894949972629547 0.9583410024642944 -0.18049100041389465 0.044684998691082 0.9825609922409058
          -0.09622199833393097 0.8860610127449036 0.4534730017185211 -0.1360889971256256 0.7406970262527466 0.657912015914917
          0.029224999248981476 0.04450099915266037 0.9985820055007935 0.2569020092487335 0.40278199315071106 0.8785030245780945
          0.36942699551582336 0.3200699985027313 0.8723980188369751 0.6868219971656799 0.3089039921760559 0.6579170227050781
          -0.0037219999358057976 0.9927700161933899 -0.11997699737548828 0.1381469964981079 0.9384559988975525 0.3165700137615204
          0.21918700635433197 0.9533060193061829 -0.2077610045671463 0.07272999733686447 0.8689069747924805 0.48960399627685547
          0.13419300317764282 0.990559995174408 -0.027986999601125717 -0.023886000737547874 0.7309439778327942 0.6820189952850342
          -0.2960669994354248 0.5986250042915344 0.7443069815635681 -0.13971500098705292 0.7906990051269531 0.5960500240325928
          -0.6763830184936523 0.4120520055294037 0.6105070114135742 -0.34606701135635376 0.7446010112762451 0.5707949995994568
          -0.6949819922447205 0.5514640212059021 0.46139800548553467 -0.6280630230903625 0.7433469891548157 0.2301589995622635
          -0.44113001227378845 0.8238080143928528 0.3560119867324829 0.9666650295257568 0.14104999601840973 -0.21369299292564392
          0.9112539887428284 0.25461798906326294 -0.3237060010433197 0.7041959762573242 0.18655100464820862 -0.6850600242614746
          0.740028977394104 0.3621790111064911 -0.5667309761047363 0.3355570137500763 0.7282540202140808 -0.5975350141525269
          0.5684639811515808 0.32113099098205566 -0.7574449777603149 0.6769880056381226 0.26927098631858826 -0.6849679946899414
          -0.8654760122299194 -0.20609399676322937 0.45659300684928894 -0.9064900279045105 -0.17292000353336334 0.3851949870586395
          -0.9759290218353271 -0.0838719978928566 0.2013150006532669 -0.9564070105552673 -0.18299199640750885 0.22759400308132172
          -0.8957970142364502 0.2559249997138977 0.36338698863983154 -0.7694730162620544 0.21744799613952637 0.6005229949951172
          -0.979541003704071 0.036017999053001404 0.19799399375915527 -0.960502028465271 0.131291002035141 0.2453559935092926
          -0.9565140008926392 0.19283199310302734 0.21885299682617188 -0.7852460145950317 0.36039799451828003 0.5034909844398499
          -0.7907289862632751 0.44216299057006836 0.4233669936656952 -0.8269850015640259 0.31495800614356995 0.4657230079174042
          -0.8403580188751221 0.3974649906158447 0.3685379922389984 -0.7523980140686035 0.5406230092048645 0.3763279914855957
          -0.9523900151252747 -0.19119399785995483 0.2374819964170456 -0.9390000104904175 -0.33693599700927734 0.06894399970769882
          -0.8949900269508362 -0.3622890114784241 0.2602680027484894 -0.8618649840354919 -0.27424201369285583 0.42659199237823486
          0.9840840101242065 -0.004207000136375427 0.17765699326992035 0.9960650205612183 0.04049399867653847 0.07883299887180328
          0.9596940279006958 0.06356199830770493 0.27376601099967957 0.9419310092926025 0.11091600358486176 0.31696099042892456
          0.937982976436615 0.266059011220932 0.22226299345493317 0.8094980120658875 0.3383359909057617 0.47983598709106445
          0.836883008480072 0.4221160113811493 0.34848999977111816 0.747842013835907 0.03672099858522415 0.6628609895706177
          0.6748939752578735 0.17170199751853943 0.7176610231399536 0.8810269832611084 -0.13274900615215302 0.4540579915046692
          0.8128929734230042 -0.1157820001244545 0.5707880258560181 0.7664989829063416 -0.11737100034952164 0.6314299702644348
          0.8823189735412598 -0.007412999868392944 0.47059300541877747 0.9818029999732971 0.0261049997061491 0.18809999525547028
          0.8042169809341431 -0.5659329891204834 -0.18153400719165802 0.8824449777603149 -0.44849300384521484 -0.1419299989938736
          0.8936439752578735 -0.4288330078125 -0.1322930008172989 0.9469299912452698 -0.30522599816322327 -0.10079800337553024
          0.96253502368927 -0.26602301001548767 0.05250899866223335 0.961696982383728 -0.16346600651741028 0.22004200518131256
          0.8239570260047913 0.09320700168609619 0.5589330196380615 0.822055995464325 -0.05181900039315224 0.5670440196990967
          0.7775539755821228 0.02085999958217144 0.6284710168838501 -0.08465500175952911 -0.9898729920387268 -0.11395099759101868
          0.3585270047187805 -0.9310629963874817 -0.0676800012588501 -0.37762099504470825 -0.8931829929351807 -0.2441840022802353
          0.40615999698638916 -0.8813430070877075 0.2413869947195053 0.5702880024909973 -0.7846930027008057 0.2429569959640503
          0.0838019996881485 -0.9743630290031433 0.20879000425338745 0.16948199272155762 -0.908161997795105 0.3827759921550751
          -0.05459300056099892 -0.7674210071563721 0.6388149857521057 0.07479500025510788 -0.9773979783058167 0.19773399829864502
          0.004656999837607145 -0.9100890159606934 0.41438600420951843 -0.062387000769376755 -0.9113950133323669 0.4067769944667816
          0.06394899636507034 -0.9619429707527161 0.2656620144844055 0.4644460082054138 -0.8835710287094116 0.05992899835109711
          0.1463170051574707 -0.9582589864730835 0.24562500417232513 0.13364499807357788 -0.9679179787635803 0.2127770036458969
          0.6513260006904602 -0.7282699942588806 -0.21306699514389038 0.6693959832191467 -0.6323490142822266 -0.38992801308631897
          0.7487170100212097 -0.5479360222816467 -0.3730809986591339 -0.9829609990119934 -0.158160001039505 0.09366899728775024
          0.42335599660873413 -0.9033560156822205 0.06868299841880798 -0.04951300099492073 -0.28168201446533203 -0.9582290053367615
          0.4786989986896515 -0.8277660012245178 0.29266101121902466 -0.6195319890975952 0.34149301052093506 -0.7067970037460327