<?xml version="1.0"?>
<VTKFile type="PolyData" version="0.1" byte_order="LittleEndian" header_type="UInt32" compressor="vtkZLibDataCompressor">
  <PolyData>
    <Piece NumberOfPoints="1616" NumberOfVerts="0" NumberOfLines="0" NumberOfStrips="0" NumberOfPolys="3228">
      <PointData Normals="Normals">
        <DataArray type="Float32" Name="Normals" NumberOfComponents="3" format="ascii" RangeMin="0.999999239875623" RangeMax="1.0000007562855606">
          -0.5020999908447266 -0.727541983127594 0.4675230085849762 -0.6434320211410522 -0.5642439723014832 0.5173239707946777
          -0.4569059908390045 -0.7261540293693542 0.5137479901313782 -0.45206600427627563 -0.7960699796676636 0.40237799286842346
          -0.6841599941253662 -0.6731520295143127 0.2806990146636963 -0.5027959942817688 -0.7722020149230957 0.3884589970111847
          -0.52047199010849 -0.5734220147132874 0.6326889991760254 -0.49475398659706116 -0.4149569869041443 0.7635639905929565
          -0.7810069918632507 -0.4955599904060364 0.380062997341156 -0.7155089974403381 -0.42222100496292114 0.5565750002861023
          -0.8406360149383545 -0.5051910281181335 0.1952269971370697 -0.5696619749069214 -0.660876989364624 0.4885979890823364
          -0.38229700922966003 -0.8317639827728271 0.4025140106678009 -0.3206320106983185 -0.8142399787902832 0.48395100235939026
          -0.2814190089702606 -0.8249689936637878 0.49013298749923706 -0.29353100061416626 -0.9130210280418396 0.283255010843277
          -0.3995000123977661 -0.8712930083274841 0.2850410044193268 -0.4162369966506958 -0.7993019819259644 0.43343299627304077
          -0.7864289879798889 -0.617542028427124 -0.01308399997651577 -0.6207079887390137 -0.7803800106048584 0.07569000124931335
          -0.5347880125045776 -0.8173140287399292 0.21447500586509705 -0.5336580276489258 -0.5374940037727356 0.6529240012168884
          -0.6092230081558228 -0.4297179877758026 0.6664760112762451 -0.35830599069595337 -0.4034479856491089 0.8419299721717834
          -0.4207479953765869 -0.4359070062637329 0.7955849766731262 -0.5532310009002686 -0.4619790017604828 0.6931890249252319
          -0.7781559824943542 -0.4242840111255646 0.46309399604797363 -0.9074530005455017 -0.4009050130844116 0.12571699917316437
          -0.8713579773902893 -0.48499900102615356 -0.07423999905586243 -0.9438269734382629 -0.32990598678588867 -0.018787000328302383
          -0.7407050132751465 -0.6350409984588623 0.2192710041999817 -0.5910750031471252 -0.729299008846283 0.3446060121059418
          -0.7440379858016968 -0.5761719942092896 0.3382810056209564 -0.6869279742240906 -0.5107280015945435 0.5169979929924011
          -0.15595600008964539 -0.8921040296554565 0.42406100034713745 -0.6110180020332336 -0.7384290099143982 0.28527000546455383
          -0.5131340026855469 -0.7709760069847107 0.3772140145301819 -0.36400699615478516 -0.8983780145645142 0.24579699337482452
          -0.16019999980926514 -0.9435740113258362 0.28983399271965027 -0.17980800569057465 -0.9415199756622314 0.28497201204299927
          0.026321999728679657 -0.9640009999275208 0.2645939886569977 -0.25751298666000366 -0.939965009689331 0.22394800186157227
          -0.4773159921169281 -0.8590949773788452 0.18472999334335327 -0.3747600018978119 -0.8286489844322205 0.41580700874328613
          -0.20241500437259674 -0.9787110090255737 0.03394300118088722 -0.21111300587654114 -0.956932008266449 0.1992810070514679
          -0.6741719841957092 -0.7312210202217102 -0.10395699739456177 -0.7509409785270691 -0.6576769948005676 0.05957899987697601
          -0.6634209752082825 -0.7482460141181946 -0.001276999944821 -0.6202470064163208 -0.7789850234985352 -0.09206599742174149
          -0.5744689702987671 -0.47013500332832336 0.6700440049171448 -0.6934409737586975 -0.4202359914779663 0.5852699875831604
          -0.5831530094146729 -0.3868350088596344 0.7143470048904419 -0.5190200209617615 -0.40203800797462463 0.7543100118637085
          -0.8649550080299377 -0.3660709857940674 0.34328600764274597 -0.9369310140609741 -0.3139840066432953 0.1535400003194809
          -0.9419580101966858 -0.3295789957046509 0.06398099660873413 -0.9360330104827881 -0.3464510142803192 0.061758000403642654
          -0.9531430006027222 -0.28833499550819397 0.09155000001192093 -0.8832070231437683 -0.464819997549057 -0.06234699860215187
          -0.9389309883117676 -0.34379100799560547 0.014705999754369259 -0.867946982383728 -0.47505199909210205 0.14489099383354187
          -0.9105820059776306 -0.3972510099411011 0.11416199803352356 -0.6905590295791626 -0.7212899923324585 0.05356400087475777
          -0.8790479898452759 -0.47432199120521545 0.04787899926304817 -0.8012269735336304 -0.5781480073928833 -0.15420900285243988
          -0.7978180050849915 -0.4411360025405884 0.410957008600235 -0.9048619866371155 -0.3750390112400055 0.20142300426959991
          -0.7835429906845093 -0.41254401206970215 0.4646170139312744 -0.008561999537050724 -0.9392399787902832 0.34315499663352966
          -0.7047569751739502 -0.7051600217819214 -0.07789400219917297 -0.6975200176239014 -0.7154520153999329 0.03992699831724167
          -0.6363779902458191 -0.7447609901428223 0.20088399946689606 -0.5635589957237244 -0.8248249888420105 0.045444998890161514
          -0.4008989930152893 -0.9079650044441223 -0.12198399752378464 -0.3173159956932068 -0.9467189908027649 0.05507500097155571
          -0.14790399372577667 -0.9667289853096008 0.2087080031633377 -0.06970799714326859 -0.9930800199508667 0.09451299905776978
          -0.20403499901294708 -0.9780960083007812 0.04120200127363205 0.290708988904953 -0.9308310151100159 0.221452996134758
          0.3961640000343323 -0.9144629836082458 0.08253300189971924 0.23532399535179138 -0.9660120010375977 0.10697100311517715
          0.04278000071644783 -0.9869359731674194 0.15532900393009186 -0.4708999991416931 -0.8718950152397156 -0.13436199724674225
          0.09104900062084198 -0.9923920035362244 0.08287599682807922 0.09091600030660629 -0.9846900105476379 -0.14872600138187408
          -0.18149499595165253 -0.9627090096473694 -0.20062600076198578 -0.46363401412963867 -0.7967900037765503 0.3875179886817932
          -0.7575939893722534 -0.6523029804229736 0.023506000638008118 -0.5715640187263489 -0.7704330086708069 0.28239500522613525
          -0.6039329767227173 -0.7460409998893738 0.2805140018463135 -0.5724650025367737 -0.7978029847145081 -0.18919600546360016
          -0.38847100734710693 -0.8846560120582581 0.25782498717308044 -0.43499600887298584 -0.8198860287666321 0.3722429871559143
          -0.48676198720932007 -0.8734430074691772 -0.012683999724686146 -0.45925500988960266 -0.8747659921646118 -0.15449899435043335
          -0.7269930243492126 -0.40462198853492737 0.5547630190849304 -0.8671780228614807 -0.33177900314331055 0.37138399481773376
          -0.8473140001296997 -0.25746798515319824 0.4645090103149414 -0.7393659949302673 -0.3162989914417267 0.5943840146064758
          -0.5104249715805054 -0.39236998558044434 0.7651870250701904 -0.46000900864601135 -0.37946000695228577 0.8027470111846924
          -0.3938480019569397 -0.42941200733184814 0.8127049803733826 -0.6988779902458191 -0.38697099685668945 0.6015170216560364
          -0.8710809946060181 -0.3262160122394562 0.36715200543403625 -0.9719629883766174 -0.1543480008840561 0.17738200724124908
          -0.8706070184707642 -0.3826340138912201 0.30924901366233826 -0.8468829989433289 -0.4739589989185333 0.2411479949951172
          -0.9589899778366089 -0.25571900606155396 0.12225600332021713 -0.8902159929275513 -0.3572790026664734 0.2826080024242401
          -0.8509610295295715 -0.5251680016517639 -0.007973999716341496 -0.6989309787750244 -0.6688920259475708 0.25313800573349
          -0.6657919883728027 -0.57259601354599 0.4783880114555359 -0.654354989528656 -0.5941720008850098 0.46773800253868103
          -0.7439799904823303 -0.605774998664856 -0.2820119857788086 -0.9544230103492737 -0.296099990606308 0.03744100034236908
          -0.8811050057411194 -0.41722801327705383 -0.22265200316905975 -0.7688339948654175 -0.45480701327323914 -0.44949498772621155
          -0.8729199767112732 -0.355444997549057 0.3341690003871918 0.13741600513458252 -0.9622189998626709 0.23505499958992004
          -0.6976869702339172 -0.5958629846572876 -0.39771801233291626 -0.6929240226745605 -0.6571639776229858 -0.2966350018978119
          -0.6722509860992432 -0.7240409851074219 -0.15441100299358368 -0.5543879866600037 -0.7395409941673279 -0.3817499876022339
          -0.341948002576828 -0.7781429886817932 -0.5268449783325195 -0.3098619878292084 -0.8952299952507019 -0.32023298740386963
          -0.3800069987773895 -0.864201009273529 -0.32977500557899475 -0.09436599910259247 -0.9850090146064758 -0.1443990021944046
          -0.037898000329732895 -0.89553302526474 -0.4433780014514923 0.15765400230884552 -0.9858670234680176 -0.05666299909353256
          0.05142299830913544 -0.9397389888763428 -0.338003009557724 -0.21943700313568115 -0.9129279851913452 -0.344105988740921
          0.3833000063896179 -0.9136580228805542 0.13531500101089478 0.582135021686554 -0.8121169805526733 -0.039810001850128174
          0.46219199895858765 -0.8757399916648865 -0.139492005109787 0.5979970097541809 -0.7965739965438843 -0.0887179970741272
          0.33322298526763916 -0.9258229732513428 -0.17836299538612366 0.13534300029277802 -0.9900659918785095 -0.038102999329566956
          0.026531999930739403 -0.9995819926261902 -0.011491999961435795 -0.18151000142097473 -0.9811829924583435 0.06582999974489212
          -0.21160699427127838 -0.8326510190963745 0.5117759704589844 -0.3655799925327301 -0.7822589874267578 0.5044019818305969
          -0.05617399886250496 -0.8100690245628357 0.5836380124092102 -0.6406729817390442 -0.7436069846153259 0.19127599895000458
          -0.43454399704933167 -0.7991870045661926 0.4152980148792267 -0.1725279986858368 -0.7732160091400146 0.6102229952812195
          -0.37626001238822937 -0.9256079792976379 0.04096300154924393 -0.26486700773239136 -0.8755249977111816 0.404105007648468
          -0.25154998898506165 -0.9373930096626282 0.2408680021762848 -0.09831999987363815 -0.8931559920310974 0.43886798620224
          -0.9761679768562317 -0.17654600739479065 0.12620200216770172 -0.9954389929771423 -0.08673100173473358 0.0397379994392395
          -0.9595320224761963 -0.13410599529743195 0.24761800467967987 -0.975013017654419 -0.05252299830317497 0.21584899723529816
          -0.9103630185127258 -0.13783399760723114 0.3901810050010681 -0.46620500087738037 -0.39276599884033203 0.7927089929580688
          -0.8254979848861694 -0.19030700623989105 0.5313529968261719 0.5245159864425659 -0.3663879930973053 0.7685329914093018
          0.4823180139064789 -0.4562450051307678 0.7478029727935791 -0.5923910140991211 -0.40443700551986694 0.6967809796333313
          -0.8060219883918762 -0.36917999386787415 0.4626390039920807 -0.6136389970779419 -0.4164870083332062 0.6708099842071533
          -0.9578070044517517 -0.1912889927625656 0.21451100707054138 -0.9792069792747498 -0.10641799867153168 0.17271099984645844
          -0.6500849723815918 -0.5045859813690186 0.5681399703025818 -0.6927149891853333 -0.5387709736824036 0.479449987411499
          -0.866461992263794 -0.41076400876045227 0.28375500440597534 -0.9055489897727966 -0.26316899061203003 0.332751989364624
          -0.4390609860420227 -0.6957449913024902 0.5684760212898254 -0.4563950002193451 -0.6422230005264282 0.6158350110054016
          -0.2886129915714264 -0.6464499831199646 0.7062609791755676 -0.4512600004673004 -0.5953879952430725 0.6647390127182007
          -0.6848819851875305 -0.47992101311683655 -0.5482810139656067 -0.9437369704246521 -0.2142529934644699 -0.25190499424934387
          -0.9513580203056335 -0.034543998539447784 -0.3061450123786926 -0.9853060245513916 -0.08792100101709366 -0.14643199741840363
          -0.9408400058746338 -0.2690280079841614 0.20601899921894073 -0.9788359999656677 -0.19295500218868256 0.06818000227212906
          -0.8203619718551636 -0.2399590015411377 -0.5190629959106445 -0.6218519806861877 -0.31662899255752563 -0.7162719964981079
          0.2078700065612793 -0.9780089855194092 -0.016992999240756035 -0.6010149717330933 -0.5110520124435425 -0.6144970059394836
          -0.5915240049362183 -0.6111130118370056 -0.525967001914978 -0.44479599595069885 -0.5694050192832947 -0.6913279891014099
          -0.2619610130786896 -0.5437960028648376 -0.7972840070724487 -0.2673499882221222 -0.7211340069770813 -0.639132022857666
          -0.33927199244499207 -0.7001259922981262 -0.6282659769058228 -0.06840000301599503 -0.7301880121231079 -0.679813027381897
          -0.011335999704897404 -0.713932991027832 -0.7001219987869263 0.05564900115132332 -0.6673460006713867 -0.7426660060882568
          0.18568000197410583 -0.8313440084457397 -0.523822009563446 0.38676199316978455 -0.9128080010414124 -0.13113699853420258
          0.5578719973564148 -0.7908089756965637 -0.2517920136451721 0.6024649739265442 -0.6715800166130066 -0.4312950074672699
          0.6275249719619751 -0.7182030081748962 -0.30066099762916565 0.637507975101471 -0.7608169913291931 -0.12141100317239761
          0.5278630256652832 -0.8444280028343201 -0.0911170020699501 0.5970360040664673 -0.7909370064735413 -0.13403700292110443
          0.5035899877548218 -0.8530550003051758 -0.13672399520874023 0.5521180033683777 -0.8334069848060608 -0.024468999356031418
          0.2645530104637146 -0.9548130035400391 0.13544100522994995 0.536674976348877 -0.8304650187492371 -0.14936000108718872
          0.4791649878025055 -0.8768680095672607 0.03876800090074539 0.23283900320529938 -0.937309980392456 0.25929999351501465
          0.1760690063238144 -0.9266420006752014 0.332165002822876 -0.008039000444114208 -0.953478991985321 0.30135101079940796
          -0.11700599640607834 -0.9338080286979675 0.33810099959373474 -0.09881900250911713 -0.7563909888267517 0.6466119885444641
          0.06415700167417526 -0.8620380163192749 0.5027660131454468 0.18081200122833252 -0.7795889973640442 0.5996230244636536
          0.1364070028066635 -0.7305430173873901 0.6691039800643921 -0.2593440115451813 -0.7422800064086914 0.6178680062294006
          0.040008001029491425 -0.682699978351593 0.7296019792556763 -0.12554100155830383 -0.6691610217094421 0.7324360013008118
          -0.9986249804496765 -0.031106999143958092 -0.042194999754428864 -0.9914109706878662 0.0265050008893013 -0.12806600332260132
          -0.998000979423523 0.0021389999892562628 0.06315600126981735 -0.9910370111465454 0.02371699921786785 -0.13146400451660156
          -0.9485949873924255 0.016088999807834625 0.31608501076698303 -0.9777950048446655 0.09545200318098068 0.18656399846076965
          -0.6838799715042114 -0.23976999521255493 0.689070999622345 -0.5277010202407837 -0.34181898832321167 0.7776190042495728
          0.7641649842262268 -0.3124519884586334 0.5642920136451721 -0.8538640141487122 -0.0699549987912178 0.5157750248908997
          -0.3611089885234833 -0.40448200702667236 0.8402349948883057 -0.7770739793777466 -0.3585459887981415 0.5173010230064392
          -0.9161480069160461 -0.2848530113697052 0.28201499581336975 -0.7223230004310608 -0.25182899832725525 0.644074022769928
          -0.9734209775924683 -0.14952799677848816 0.1734739989042282 -0.9429360032081604 -0.09731400012969971 0.31843599677085876
          0.17772799730300903 -0.17301000654697418 0.9687520265579224 0.14914299547672272 -0.4661099910736084 0.872065007686615
          -0.3151409924030304 -0.6265439987182617 0.712831974029541 -0.7173579931259155 -0.46070000529289246 0.5226399898529053
          -0.31318399310112 -0.5951679944992065 0.7400619983673096 -0.5721489787101746 -0.5003430247306824 0.6498479843139648
          -0.6394420266151428 -0.40099599957466125 0.6559849977493286 -0.8373469710350037 -0.21858400106430054 0.5010700225830078
          -0.21438899636268616 -0.6771069765090942 0.7039629817008972 -0.8872420191764832 -0.011574000120162964 -0.46116000413894653
          -0.8820400238037109 0.060756001621484756 -0.4672420024871826 -0.956836998462677 0.048503000289201736 -0.286547988653183
          -0.6850370168685913 -0.10704399645328522 -0.7206010222434998 -0.8052399754524231 0.01863900013267994 -0.5926560163497925
          -0.47299501299858093 -0.3092299997806549 -0.825016975402832 -0.46058499813079834 -0.17372100055217743 -0.8704490065574646
          -0.46525099873542786 -0.09095100313425064 -0.8804939985275269 0.25731199979782104 -0.8809530138969421 -0.39713001251220703
          -0.4701240062713623 -0.46527600288391113 -0.7500010132789612 -0.2963840067386627 -0.3917750120162964 -0.8710160255432129
          -0.20651200413703918 -0.29846298694610596 -0.9318109750747681 -0.2176939994096756 -0.47924599051475525 -0.850255012512207
          -0.011025999672710896 -0.3610979914665222 -0.9324629902839661 0.022617999464273453 -0.544268012046814 -0.8386070132255554
          0.11447300016880035 -0.3330860137939453 -0.9359220266342163 0.15713399648666382 -0.49376198649406433 -0.8552830219268799
          0.22922900319099426 -0.5973899960517883 -0.7684910297393799 0.4196699857711792 -0.7145869731903076 -0.5596809983253479
          0.5125449895858765 -0.5506830215454102 -0.6588209867477417 0.5061159729957581 -0.47547999024391174 -0.7195590138435364
          0.43689799308776855 -0.6019799709320068 -0.6683869957923889 0.494157999753952 -0.7574229836463928 -0.4267530143260956
          0.5036979913711548 -0.8561099767684937 -0.11560700088739395 0.5603320002555847 -0.8210260272026062 0.10929200053215027
          0.39211300015449524 -0.91873699426651 -0.0465719997882843 0.6305540204048157 -0.7688040137290955 0.10650099813938141
          0.7285130023956299 -0.6783549785614014 0.09541399776935577 0.634128987789154 -0.7720339894294739 0.04293899983167648
          0.6709250211715698 -0.7383689880371094 0.06834100186824799 0.46869999170303345 -0.8731499910354614 -0.13390399515628815
          0.2598539888858795 -0.8488150238990784 0.46042200922966003 0.35778701305389404 -0.8629339933395386 0.35683900117874146
          0.41978898644447327 -0.8168299794197083 0.39568400382995605 0.2788510024547577 -0.7629299759864807 0.5832489728927612
          0.1869480013847351 -0.6523849964141846 0.7344689965248108 0.3636859953403473 -0.6660509705543518 0.6512359976768494
          0.3334900140762329 -0.7111170291900635 0.6189489960670471 -0.11356499791145325 -0.6330130100250244 0.7657660245895386
          -0.06589499861001968 -0.5781220197677612 0.8132849931716919 -0.9545649886131287 0.11084999889135361 -0.27661800384521484
          -0.9906740188598633 0.09351299703121185 -0.099092997610569 -0.8979679942131042 0.05067100003361702 0.4371339976787567
          -0.9552140235900879 0.19882899522781372 0.21916499733924866 -0.9782540202140808 0.20470499992370605 0.03339700028300285
          -0.8331760168075562 -0.28303098678588867 0.47509101033210754 -0.9460560083389282 -0.2065580040216446 0.24962200224399567
          -0.8098340034484863 -0.18025900423526764 0.5582799911499023 -0.960739016532898 -0.10971000045537949 0.25484299659729004
          -0.9299989938735962 -0.07562500238418579 0.359699010848999 -0.9069849848747253 -0.11826799809932709 0.4042159914970398
          -0.765254020690918 -0.195264995098114 0.613398015499115 0.8276309967041016 -0.17993700504302979 0.5316479802131653
          -0.9075539708137512 -0.18095199763774872 0.37894800305366516 -0.4451789855957031 -0.49198299646377563 0.7481769919395447
          -0.2500869929790497 -0.48493701219558716 0.8380290269851685 -0.3857010006904602 -0.46270298957824707 0.7982109785079956
          -0.5209130048751831 -0.3633809983730316 0.772400975227356 -0.7118539810180664 -0.2454870045185089 0.6580269932746887
          -0.8152740001678467 0.029556000605225563 -0.5783200263977051 -0.8846070170402527 0.027638999745249748 -0.4655179977416992
          -0.6770690083503723 0.0014169999631121755 -0.7359179854393005 -0.21977099776268005 -0.14411500096321106 -0.964847981929779
          -0.27620598673820496 -0.24142399430274963 -0.9302819967269897 -0.31571701169013977 -0.313834011554718 -0.8954499959945679
          -0.28575798869132996 -0.06091199815273285 -0.9563639760017395 -0.46375200152397156 0.057558998465538025 -0.8840929865837097
          -0.21070800721645355 0.046216998249292374 -0.9764559864997864 -0.1498810052871704 -0.16744199395179749 -0.9744219779968262
          -0.030527999624609947 -0.16658200323581696 -0.9855549931526184 0.0370509997010231 -0.12690800428390503 -0.9912220239639282
          -0.0735820010304451 -0.25379499793052673 -0.9644550085067749 0.16397400200366974 -0.10403399914503098 -0.9809629917144775
          0.2350279986858368 -0.19378499686717987 -0.9524750113487244 0.3558950126171112 -0.40049099922180176 -0.8443610072135925
          0.3633590042591095 -0.2579430043697357 -0.8952289819717407 0.48412400484085083 -0.4116800129413605 -0.7721030116081238
          0.354667991399765 -0.2892009913921356 -0.8891419768333435 0.3911589980125427 -0.3520190119743347 -0.8503400087356567
          0.23263099789619446 -0.3979269862174988 -0.8874329924583435 0.214261993765831 -0.4734260141849518 -0.8543769717216492
          0.4258730113506317 -0.6505360007286072 -0.628836989402771 0.46236300468444824 -0.7941960096359253 -0.39430099725723267
          0.6317920088768005 -0.7731379866600037 0.05564599856734276 0.5214430093765259 -0.7721920013427734 0.3630650043487549
          0.4027140140533447 -0.7658320069313049 0.501321017742157 0.943352997303009 -0.32712000608444214 0.05548499897122383
          0.6961410045623779 -0.7166029810905457 0.04321200028061867 0.9483979940414429 -0.31260499358177185 0.05310799926519394
          0.6522169709205627 -0.7369890213012695 0.17737199366092682 0.9083849787712097 -0.4080899953842163 0.0911019966006279
          0.5583789944648743 -0.7759159803390503 -0.2935430109500885 0.6382380127906799 -0.7685949802398682 -0.043738000094890594
          0.5432590246200562 -0.7188969850540161 -0.4336540102958679 0.11919999867677689 -0.5654039978981018 0.8161550164222717
          0.4295949935913086 -0.6036869883537292 0.6715729832649231 0.2973540127277374 -0.6046130061149597 0.7389349937438965
          0.26457899808883667 -0.5345749855041504 0.8026379942893982 0.5363119840621948 -0.6590489745140076 0.5272799730300903
          0.5340099930763245 -0.592070996761322 0.6035599708557129 0.44947299361228943 -0.7115780115127563 0.540028989315033
          -0.1711370050907135 -0.4743500053882599 0.8635420203208923 0.09778600186109543 -0.49461299180984497 0.8635950088500977
          -0.7354180216789246 0.0723780021071434 -0.6737369894981384 -0.9383059740066528 0.2599389851093292 -0.22806499898433685
          -0.9532240033149719 0.22898299992084503 -0.19730700552463531 -0.8407909870147705 0.1442669928073883 -0.5217829942703247
          -0.9569730162620544 0.2060299962759018 -0.20434099435806274 -0.9231669902801514 0.18568700551986694 0.33657699823379517
          -0.8792610168457031 -0.06661999970674515 0.47165799140930176 -0.9369900226593018 0.34710100293159485 0.03963100165128708
          -0.9404739737510681 0.3006410002708435 0.158502995967865 -0.9192590117454529 0.33515700697898865 0.20647600293159485
          -0.9360740184783936 0.3268220126628876 -0.13020600378513336 -0.788923978805542 -0.1590919941663742 0.5935389995574951
          -0.948540985584259 0.05928700044751167 0.311055988073349 -0.8643019795417786 0.10906899720430374 0.49100399017333984
          -0.85344398021698 -0.18663500249385834 0.4866209924221039 -0.6472219824790955 -0.29553401470184326 0.7026829719543457
          -0.9095410108566284 -0.11383599787950516 0.3997209966182709 -0.35122400522232056 -0.4113819897174835 0.8410739898681641
          -0.6475390195846558 0.12095300108194351 -0.7523720264434814 -0.7256349921226501 0.054430000483989716 -0.6859239935874939
          -0.07472500205039978 0.012551999650895596 -0.9971250295639038 -0.01445200014859438 0.0335410013794899 -0.9993330240249634
          -0.41054901480674744 0.10990999639034271 -0.9051899909973145 -0.24778200685977936 0.06699399650096893 -0.966497004032135
          0.07519599795341492 -0.01221499964594841 -0.9970939755439758 0.14143699407577515 -0.018501000478863716 -0.9897739887237549
          0.21314899623394012 -0.0017359999474138021 -0.9770179986953735 0.22488699853420258 -0.020746000111103058 -0.9741640090942383
          0.29093998670578003 -0.15863600373268127 -0.9434980154037476 0.18354299664497375 -0.04787600040435791 -0.9818450212478638
          0.20808200538158417 -0.08333399891853333 -0.9745550155639648 0.24394600093364716 -0.17699499428272247 -0.953499972820282
          0.13634899258613586 -0.38461199402809143 -0.9129530191421509 0.16344499588012695 -0.23988600075244904 -0.9569429755210876
          0.27729299664497375 -0.3518109917640686 -0.8940569758415222 0.33335399627685547 -0.40982499718666077 -0.8490689992904663
          0.3427410125732422 -0.3231329917907715 -0.8821079730987549 0.5317050218582153 -0.5760170221328735 -0.620881974697113
          0.6818739771842957 -0.7066159844398499 0.1890539973974228 0.7751719951629639 -0.6225190162658691 0.10760699957609177
          0.8233109712600708 -0.5663509964942932 0.03749199956655502 0.7245919704437256 -0.6851829886436462 0.07410500198602676
          0.6593490242958069 -0.748803973197937 0.0674699991941452 0.7218239903450012 -0.6547420024871826 0.22423799335956573
          0.6470059752464294 -0.6901050209999084 0.3242509961128235 0.5026130080223083 -0.5830370187759399 -0.6383159756660461
          0.5834519863128662 -0.7246760129928589 -0.3666450083255768 0.6857320070266724 -0.6787199974060059 -0.26288899779319763
          0.4336160123348236 -0.5668830275535583 0.7004439830780029 0.5523099899291992 -0.5604580044746399 0.617123007774353
          0.6170399785041809 -0.5424579977989197 0.5700889825820923 0.5829769968986511 -0.502951979637146 0.6381049752235413
          0.4927470088005066 -0.5170570015907288 0.6998950242996216 0.3202719986438751 -0.49452099204063416 0.808007001876831
          0.7139509916305542 -0.5753380060195923 0.399073988199234 -0.18694999814033508 -0.4242990016937256 0.8860139846801758
          0.34140101075172424 -0.4726540148258209 0.8124309778213501 0.30307498574256897 -0.452318012714386 0.8387809991836548
          0.01070099975913763 -0.44316500425338745 0.8963760137557983 0.18307599425315857 -0.42330101132392883 0.8872990012168884
          -0.5446580052375793 0.06429299712181091 -0.8361899852752686 -0.8821539878845215 0.3740690052509308 -0.28613999485969543
          -0.9199550151824951 0.3530089855194092 -0.17049400508403778 -0.9345300197601318 0.3558740019798279 0.002756000030785799
          -0.89410400390625 0.24107599258422852 -0.3774400055408478 -0.9584699869155884 0.22796300053596497 -0.17136900126934052
          -0.9583770036697388 0.23913100361824036 -0.15598200261592865 -0.6930009722709656 0.16131600737571716 -0.7026569843292236
          -0.9152259826660156 0.28498899936676025 0.28485599160194397 -0.9316520094871521 0.15631799399852753 0.3280079960823059
          -0.7444940209388733 -0.2532620131969452 0.6177269816398621 -0.8676450252532959 -0.03932100161910057 0.4956269860267639
          -0.8368769884109497 0.5214669704437256 -0.1664630025625229 -0.798229992389679 0.6022130250930786 -0.012985999695956707
          -0.891381025314331 0.4339680075645447 0.1308079957962036 -0.8265010118484497 0.5629169940948486 0.004480000119656324
          -0.8896200060844421 0.45159998536109924 0.0680679976940155 -0.8972409963607788 0.42889100313186646 0.104933001101017
          -0.8879119753837585 0.45783698558807373 0.04469199851155281 -0.8310229778289795 0.554656982421875 -0.04191799834370613
          -0.8052319884300232 0.04484599828720093 0.5912619829177856 -0.707243025302887 -0.30102598667144775 0.639680027961731
          -0.3095250129699707 0.07891999930143356 0.9476109743118286 -0.91280597448349 0.15277199447155 0.37874099612236023
          -0.9532129764556885 0.17538799345493317 0.24622100591659546 -0.9190250039100647 0.21521900594234467 0.33026400208473206
          -0.8504700064659119 -0.15437999367713928 0.5028589963912964 -0.773019015789032 -0.11964000016450882 0.6229990124702454
          -0.727171003818512 -0.2720020115375519 0.6302679777145386 -0.4761280119419098 -0.3442099988460541 0.8092100024223328
          0.15630300343036652 0.03467699885368347 -0.9871000051498413 0.13408400118350983 -0.05385800078511238 -0.9895049929618835
          -0.05922999978065491 0.03799799829721451 -0.9975209832191467 -0.008516999892890453 0.032308999449014664 -0.9994419813156128
          -0.024699000641703606 -0.10058599710464478 -0.994621992111206 -0.17892900109291077 0.037477001547813416 -0.9831479787826538
          0.08331000059843063 -0.10240200161933899 -0.9912480115890503 0.08467499911785126 -0.14244599640369415 -0.9861739873886108
          0.13328300416469574 -0.19204400479793549 -0.9722939729690552 0.3399850130081177 -0.2716369926929474 -0.9003459811210632
          0.4353579878807068 -0.4181100130081177 -0.7972750067710876 0.4348289966583252 -0.3732300102710724 -0.8195260167121887
          0.3463610112667084 -0.27842599153518677 -0.8958309888839722 0.7954469919204712 -0.4705829918384552 0.3818590044975281
          0.8122519850730896 -0.5253279805183411 0.25352901220321655 0.7493929862976074 -0.5291380286216736 0.39802300930023193
          0.6942650079727173 -0.7184330224990845 -0.04302100092172623 0.6358060240745544 -0.745415985584259 0.20026500523090363
          0.6549959778785706 -0.6510829925537109 0.38349801301956177 0.7289260029792786 -0.4746190011501312 0.4933600127696991
          0.5812230110168457 -0.6310539841651917 -0.5137619972229004 0.512802004814148 -0.43625399470329285 -0.7394030094146729
          0.6560239791870117 -0.5703809857368469 -0.49426600337028503 0.727370023727417 -0.6173920035362244 -0.2996000051498413