<?xml version="1.0"?>
<VTKFile type="PolyData" version="0.1" byte_order="LittleEndian" header_type="UInt32" compressor="vtkZLibDataCompressor">
  <PolyData>
    <Piece NumberOfPoints="3300" NumberOfVerts="0" NumberOfLines="0" NumberOfStrips="0" NumberOfPolys="3773">
      <PointData Normals="Normals">
        <DataArray type="Float32" Name="Normals" NumberOfComponents="3" format="ascii" RangeMin="0.9999992391546237" RangeMax="1.0000008274795134">
          0.5920730233192444 -0.01428299956023693 -0.805757999420166 0.1784829944372177 -0.8486459851264954 -0.49793899059295654
          0.4081999957561493 -0.5201929807662964 -0.7501810193061829 0.3251259922981262 -0.741549015045166 -0.5868539810180664
          0.5024740099906921 0.15039299428462982 -0.851410984992981 0.879056990146637 -0.36841198801994324 -0.3025420010089874
          0.7198050022125244 -0.2109230011701584 -0.6613569855690002 0.800574004650116 -0.4266799986362457 -0.4207429885864258
          0.754269003868103 -0.19065600633621216 -0.6282740235328674 0.5363360047340393 -0.6455950140953064 -0.543645977973938
          0.4263469874858856 -0.671097993850708 -0.6065109968185425 0.2994590103626251 -0.5554580092430115 -0.7757520079612732
          0.1606059968471527 -0.44124099612236023 -0.8828999996185303 0.22267299890518188 -0.8385369777679443 -0.4972650110721588
          0.5236709713935852 -0.3520340025424957 -0.7757840156555176 -0.06503000110387802 -0.22980600595474243 -0.9710609912872314
          -0.0057669999077916145 -0.8384580016136169 -0.5449360013008118 -0.07724899798631668 -0.7860680222511292 -0.6132950186729431
          -0.35841500759124756 -0.7949699759483337 -0.48945000767707825 0.12089700251817703 -0.9253169894218445 -0.3594050109386444
          0.4024679958820343 -0.7019240260124207 -0.5876420140266418 0.20928099751472473 -0.22023500502109528 -0.9527320265769958
          -0.2976149916648865 0.9513840079307556 0.07932999730110168 0.3406279981136322 -0.6599699854850769 -0.6696360111236572
          0.3860799968242645 -0.8180930018424988 -0.4262230098247528 0.7957950234413147 -0.5497390031814575 -0.2539620101451874
          0.6672199964523315 0.12133800238370895 -0.7349110245704651 0.7720929980278015 -0.014550999738276005 -0.6353430151939392
          0.9182429909706116 -0.32241401076316833 -0.22995400428771973 0.8308429718017578 -0.5563030242919922 0.015068000182509422
          0.8355140089988708 -0.5388529896736145 -0.10748499631881714 0.8879110217094421 -0.45271098613739014 -0.08164899796247482
          0.6294029951095581 -0.6958940029144287 -0.3458079993724823 0.892270028591156 -0.4163840115070343 -0.17458400130271912
          0.7313179969787598 -0.15089300274848938 -0.6651350259780884 0.7230029702186584 -0.5680890083312988 -0.3931170105934143
          0.3869929909706116 -0.7985759973526001 -0.4609909951686859 0.8432379961013794 -0.1156890019774437 -0.5249429941177368
          0.4749070107936859 -0.11144500225782394 -0.8729509711265564 -0.1301649957895279 -0.1283089965581894 -0.9831550121307373
          -0.08667899668216705 -0.03646000102162361 -0.9955689907073975 0.5270370244979858 -0.02019600011408329 -0.8496019840240479
          -0.08782900124788284 -0.00014699999883305281 -0.9961360096931458 0.5170350074768066 -0.06987199932336807 -0.8531069755554199
          0.8701609969139099 -0.2192690074443817 -0.4412960112094879 -0.40101099014282227 -0.5055109858512878 -0.7639690041542053
          -0.31313401460647583 -0.08963699638843536 -0.9454690217971802 -0.3618159890174866 -0.14555199444293976 -0.9208170175552368
          -0.29485198855400085 -0.33984699845314026 -0.8930659890174866 0.32895100116729736 -0.46373000741004944 -0.8226450085639954
          0.2662239968776703 -0.6156070232391357 -0.7417230010032654 0.5352370142936707 -0.5781430006027222 -0.6158499717712402
          -0.41905298829078674 0.10043299943208694 -0.9023900032043457 -0.04691300168633461 0.008702999912202358 -0.9988610148429871
          0.3928300142288208 -0.9121119976043701 -0.11720599979162216 0.14305399358272552 -0.045997001230716705 -0.9886450171470642
          -0.41817399859428406 0.21390299499034882 -0.8828229904174805 0.11218299716711044 0.004623999819159508 -0.993677020072937
          0.6676700115203857 -0.07007899880409241 -0.7411519885063171 0.9273620247840881 -0.06609199941158295 -0.3682830035686493
          0.831404983997345 0.21600599586963654 -0.5119649767875671 0.27020400762557983 -0.9310100078582764 -0.2453790009021759
          0.8024140000343323 -0.5422109961509705 -0.24927900731563568 0.9356529712677002 0.3497239947319031 0.04739199951291084
          0.5400980114936829 -0.6402599811553955 -0.5462239980697632 0.12297800183296204 -0.676285982131958 -0.7263020277023315
          0.8847290277481079 0.04955599829554558 -0.4634630084037781 0.7685099840164185 -0.6284540295600891 -0.12016099691390991
          0.7791119813919067 -0.5824639797210693 -0.23177699744701385 0.2605549991130829 -0.9512590169906616 -0.1649779975414276
          0.9014679789543152 -0.32819101214408875 -0.28221601247787476 0.8463230133056641 -0.5009620189666748 -0.18103499710559845
          0.8684160113334656 -0.4858030080795288 -0.09923999756574631 0.956072986125946 -0.07292500138282776 -0.2839129865169525
          0.604777991771698 0.003889000043272972 -0.7963849902153015 0.9177160263061523 -0.29022398591041565 -0.27123400568962097
          0.9748870134353638 -0.15951800346374512 0.1554030030965805 0.9563310146331787 -0.27353599667549133 -0.10299800336360931
          0.9656739830970764 0.1762479990720749 -0.1908160001039505 0.8566309809684753 -0.462442010641098 -0.22875800728797913
          -0.6753349900245667 -0.6951619982719421 -0.2463179975748062 -0.1313289999961853 -0.8513110280036926 -0.5079600214958191
          0.5004979968070984 -0.5439820289611816 -0.6734880208969116 0.1352130025625229 -0.4752109944820404 -0.8694210052490234
          0.029624000191688538 -0.4118320047855377 -0.9107779860496521 -0.02884100005030632 -0.5861319899559021 -0.8097019791603088
          -0.5516470074653625 -0.3102779984474182 -0.7742180228233337 0.31559300422668457 -0.6104580163955688 -0.7264580130577087
          0.13061000406742096 -0.6936709880828857 -0.7083510160446167 -0.041016001254320145 -0.976580023765564 -0.21120800077915192
          -0.698773980140686 -0.2662230134010315 -0.6639580130577087 -0.5725250244140625 -0.07540799677371979 -0.8164119720458984
          -0.4118439853191376 -0.019253000617027283 -0.9110509753227234 -0.36685898900032043 0.39177200198173523 -0.8437590003013611
          -0.4492360055446625 -0.11214999854564667 -0.8863459825515747 -0.4074310064315796 -0.04897899925708771 -0.9119219779968262
          -0.5887330174446106 -0.000910000002477318 -0.8083270192146301 -0.09185700118541718 0.28369298577308655 -0.954505980014801
          0.6328859925270081 0.3502329885959625 -0.6905019879341125 -0.4467509984970093 0.13967600464820862 -0.8836879730224609
          0.6496090292930603 0.039406999945640564 -0.7592459917068481 0.7268409729003906 0.08839800208806992 -0.6810929775238037
          -0.33541399240493774 0.07852400094270706 -0.9387930035591125 -0.4878250062465668 -0.2171649932861328 -0.8454980254173279
          0.9767490029335022 -0.005061999894678593 -0.21432599425315857 0.1766200065612793 -0.580564022064209 -0.7948279976844788
          -0.3628929853439331 -0.4530459940433502 -0.8142840266227722 0.5687599778175354 -0.581512987613678 -0.581682026386261
          0.7040969729423523 -0.5657550096511841 -0.4291499853134155 0.33566901087760925 -0.39381399750709534 -0.8557080030441284
          0.6225020289421082 -0.7518810033798218 -0.21717500686645508 0.9080640077590942 0.20129500329494476 -0.36728599667549133
          0.4884049892425537 -0.6985909938812256 -0.522907018661499 0.5658329725265503 -0.6261469721794128 -0.5364440083503723
          -0.15487700700759888 0.10458499938249588 -0.9823819994926453 0.36617401242256165 0.22994500398635864 -0.9016879796981812
          0.30843400955200195 0.14323900640010834 -0.9404000043869019 0.7714099884033203 0.22088700532913208 -0.5967710018157959
          0.6312230229377747 -0.7707399725914001 -0.08670800179243088 0.7370439767837524 -0.583187997341156 -0.3415519893169403
          0.5902339816093445 -0.605131983757019 -0.5342640280723572 0.6755419969558716 -0.19749100506305695 -0.7103800177574158
          0.17517100274562836 -0.9605579972267151 -0.2159689962863922 -0.6566449999809265 -0.7290380001068115 0.19318599998950958
          0.8446400165557861 -0.1793839931488037 -0.5043849945068359 0.7529889941215515 0.1553259938955307 -0.6394379734992981
          0.3648110032081604 0.92466801404953 -0.10909900069236755 0.540556013584137 0.7171279788017273 -0.4399160146713257
          0.9245110154151917 0.17720399796962738 -0.3374600112438202 0.9731379747390747 0.15320800244808197 -0.17184500396251678
          0.6903870105743408 0.009929999709129333 -0.7233719825744629 0.8436300158500671 -0.3086720108985901 -0.43932899832725525
          0.8837559819221497 -0.3187730014324188 -0.3425770103931427 0.903033971786499 -0.07546000182628632 -0.42288899421691895
          0.39740699529647827 -0.07432900369167328 0.9146270155906677 0.4306190013885498 0.4013819992542267 0.8083680272102356
          0.33045798540115356 -0.36323198676109314 0.8711259961128235 0.7303310036659241 0.6679480075836182 0.14304499328136444
          0.35448798537254333 -0.5939260125160217 0.722212016582489 -0.9609540104866028 -0.16438299417495728 -0.22258900105953217
          -0.9397100210189819 -0.16899000108242035 0.2973009943962097 -0.5868769884109497 -0.8086270093917847 -0.041207000613212585
          -0.23514099419116974 -0.9046260118484497 0.35547199845314026 0.05052400007843971 -0.9928370118141174 -0.10827299952507019
          -0.22391700744628906 -0.9419940114021301 -0.250014990568161 -0.5312029719352722 -0.7610530257225037 -0.37231799960136414
          0.4361110031604767 -0.8837500214576721 0.16968399286270142 0.01627499982714653 -0.9815589785575867 0.19046400487422943
          -0.4129579961299896 -0.8719300031661987 0.26306599378585815 -0.5577939748764038 -0.8287680149078369 0.04482800140976906
          -0.6850720047950745 0.1008400022983551 -0.7214620113372803 -0.8265339732170105 -0.003226999891921878 -0.5628780126571655
          -0.9534260034561157 -0.09070099890232086 -0.28766798973083496 -0.4084939956665039 -0.17491500079631805 -0.8958439826965332
          -0.6464740037918091 0.034591998904943466 -0.7621520161628723 0.4941389858722687 -0.13498100638389587 -0.8588399887084961
          -0.22243699431419373 0.40331199765205383 -0.8876150250434875 -0.5422080159187317 0.16040700674057007 -0.8247910141944885
          0.759037971496582 -0.34154000878334045 -0.5542669892311096 0.0745529979467392 0.9852229952812195 -0.15420100092887878
          -0.6483830213546753 0.008648999966681004 -0.7612659931182861 -0.7306889891624451 0.06814700365066528 -0.6793000102043152
          -0.775397002696991 0.08621499687433243 -0.6255599856376648 0.22355100512504578 0.16111500561237335 -0.9612839818000793
          -0.22747699916362762 0.07238099724054337 -0.9710900187492371 -0.5013660192489624 0.3227689862251282 -0.8027780055999756
          -0.8489999771118164 -0.10886099934577942 -0.5170570015907288 -0.25367099046707153 -0.5244690179824829 -0.812762975692749
          0.5614240169525146 -0.43298399448394775 -0.7052149772644043 0.3060170114040375 -0.5028150081634521 -0.8084120154380798
          -0.9143499732017517 -0.3562600016593933 -0.19246800243854523 -0.7707849740982056 -0.47849300503730774 -0.42063599824905396
          -0.030942000448703766 -0.9825059771537781 0.1836410015821457 -0.2677200138568878 -0.9478300213813782 -0.17304399609565735
          -0.2247990071773529 -0.9172869920730591 -0.32870998978614807 -0.11850199848413467 -0.5287830233573914 -0.840444028377533
          0.31429800391197205 -0.9177470207214355 -0.24281300604343414 -0.379381000995636 -0.786316990852356 -0.487623006105423
          0.7860699892044067 -0.5995609760284424 -0.1504019945859909 0.8574489951133728 -0.45016101002693176 -0.24927200376987457
          0.8754950165748596 -0.18282000720500946 -0.4473089873790741 -0.010970000177621841 -0.9661549925804138 -0.2577289938926697
          0.7275829911231995 0.5102139711380005 -0.4585910141468048 0.8601040244102478 0.1703220009803772 -0.48084500432014465
          0.6730139851570129 -0.6577799916267395 -0.3381969928741455 0.9764639735221863 0.21532399952411652 0.012381000444293022
          -0.059502001851797104 -0.5235900282859802 -0.8498899936676025 0.7388749718666077 -0.5697469711303711 -0.3597959876060486
          0.2993820011615753 -0.7651829719543457 -0.5699700117111206 0.7823460102081299 -0.5939279794692993 0.18757300078868866
          0.9039070010185242 0.16043199598789215 -0.39650198817253113 0.7421309947967529 0.2667889893054962 -0.6148689985275269
          0.44461700320243835 -0.6333619952201843 -0.6333789825439453 0.5113850235939026 -0.24372099339962006 -0.8240669965744019
          -0.1077990010380745 -0.9840329885482788 -0.14162500202655792 0.3911780118942261 0.18476499617099762 -0.9015769958496094
          0.4552609920501709 0.13671299815177917 -0.8797990083694458 0.4344730079174042 0.578199028968811 -0.6905930042266846
          -0.6821659803390503 -0.5805479884147644 0.4445370137691498 0.854511022567749 0.27956700325012207 -0.4377819895744324
          0.66144198179245 0.21898700296878815 -0.7173140048980713 0.4542590081691742 0.889835000038147 0.0429220013320446
          0.1722249984741211 0.9780430197715759 -0.11734600365161896 0.12776899337768555 0.9146869778633118 -0.383435994386673
          0.3781050145626068 0.9123430252075195 0.15705600380897522 0.44105398654937744 0.6315240263938904 -0.6376910209655762
          0.0646589994430542 0.8026059865951538 -0.592993974685669 0.5221419930458069 0.19962799549102783 -0.8291659951210022
          0.8102959990501404 -0.2294120043516159 -0.5392510294914246 0.6771289706230164 0.1286119967699051 -0.7245380282402039
          0.8071690201759338 -0.000019999999494757503 -0.5903199911117554 0.5080689787864685 -0.7903270125389099 0.34241700172424316
          0.6100509762763977 0.26601800322532654 -0.7463719844818115 0.14911100268363953 0.5420920252799988 -0.8269839882850647
          -0.084477998316288 0.040073998272418976 0.995618999004364 -0.19431200623512268 0.08674599975347519 0.9770969748497009
          -0.024442000314593315 -0.08652999997138977 0.9959489703178406 -0.5140910148620605 0.17241500318050385 0.8402280211448669
          -0.000450999999884516 -0.2561669945716858 0.9666320085525513 0.47725600004196167 -0.7702230215072632 0.4230639934539795
          0.07816000282764435 -0.5808910131454468 0.8102200031280518 0.21580100059509277 -0.9727990031242371 -0.08421599864959717
          -0.970920979976654 -0.08864700049161911 0.22238300740718842 -0.7232949733734131 -0.23399999737739563 0.6496829986572266
          -0.10914599895477295 -0.9882940053939819 0.10659299790859222 -0.3108519911766052 -0.9430109858512878 -0.11874700337648392
          0.07836399972438812 -0.9856449961662292 0.14954599738121033 0.10072900354862213 -0.9614260196685791 0.2559579908847809
          -0.3438970148563385 -0.9347280263900757 -0.08954399824142456 -0.2611069977283478 -0.9373070001602173 -0.23082099854946136
          -0.5734189748764038 -0.7960929870605469 -0.19345900416374207 0.1717189997434616 -0.9751440286636353 0.1400260031223297
          0.1515360027551651 -0.9668329954147339 0.20559999346733093 -0.5308690071105957 -0.8474509716033936 -0.002116000046953559
          -0.2518500089645386 -0.9585070013999939 0.13354599475860596 -0.7752490043640137 0.1965869963169098 -0.600284993648529
          -0.8021979928016663 0.19682200253009796 -0.5636839866638184 -0.7575849890708923 0.28477999567985535 -0.5873370170593262
          -0.906059980392456 -0.1318960040807724 -0.40206900238990784 -0.9466080069541931 0.042187001556158066 0.3196150064468384
          -0.9151769876480103 -0.32803699374198914 -0.23418700695037842 -0.5915430188179016 -0.7211819887161255 -0.3605180084705353
          -0.19571399688720703 0.3583579957485199 -0.9128389954566956 0.7553650140762329 -0.11691699922084808 -0.64478999376297
          0.8778989911079407 -0.20828300714492798 -0.43117499351501465 -0.509818971157074 0.153096005320549 -0.8465499877929688
          -0.2395620048046112 0.7007989883422852 -0.6719300150871277 -0.2533920109272003 0.9286050200462341 -0.2710829973220825
          -0.7623220086097717 0.1392280012369156 -0.6320449709892273 0.7008569836616516 -0.12058199942111969 -0.7030360102653503
          0.15782999992370605 0.1445630043745041 -0.9768270254135132 -0.47857901453971863 0.44287100434303284 -0.7581740021705627
          -0.8653140068054199 0.07008100301027298 -0.49630698561668396 -0.9522799849510193 0.07614400237798691 -0.29557499289512634
          -0.9495069980621338 0.17640499770641327 -0.259456992149353 -0.12504999339580536 -0.3601579964160919 -0.9244719743728638
          -0.458748996257782 -0.04091000184416771 -0.8876240253448486 -0.5824840068817139 0.21247999370098114 -0.7845789790153503
          0.029138000681996346 -0.887004017829895 -0.46084100008010864 0.020100999623537064 -0.96418297290802 -0.26447299122810364
          -0.2961139976978302 -0.9273359775543213 -0.22883500158786774 -0.5903339982032776 -0.7584959864616394 -0.27602601051330566
          -0.9343680143356323 -0.327580988407135 -0.1401659995317459 -0.11637599766254425 -0.9632030129432678 0.24227400124073029
          -0.48730701208114624 -0.844307005405426 0.22288599610328674 -0.49674201011657715 -0.8532819747924805 -0.158610001206398
          -0.6010559797286987 -0.6816589832305908 0.41721999645233154 0.35157498717308044 -0.6709160208702087 -0.6528909802436829
          0.5437610149383545 0.27447500824928284 -0.7930870056152344 -0.05319799855351448 0.26235198974609375 -0.9635050296783447
          0.6252049803733826 0.29281100630760193 -0.7234500050544739 0.9681820273399353 0.10503900051116943 0.22713400423526764
          0.916500985622406 0.25807300209999084 -0.30565300583839417 0.9948040246963501 0.10181199759244919 0.000004999999873689376
          0.3804450035095215 0.9120849967002869 -0.15285000205039978 -0.8946110010147095 -0.4411030113697052 0.07140500098466873
          0.7353829741477966 -0.6565679907798767 -0.16772300004959106 0.9258340001106262 0.1346909999847412 -0.35311299562454224
          0.7829160094261169 -0.5424209833145142 -0.30466800928115845 0.9334049820899963 -0.3583909869194031 0.01763099990785122
          0.7465260028839111 -0.6473159790039062 0.15388800203800201 0.1009259968996048 -0.9948769807815552 0.005803000181913376
          0.5020639896392822 -0.18237699568271637 -0.8453819751739502 0.441677987575531 -0.6744049787521362 -0.5916910171508789
          -0.2678070068359375 -0.890326976776123 0.3682349920272827 0.2206059992313385 -0.6613060235977173 0.7169430255889893
          0.1334889978170395 -0.8328080177307129 0.5372260212898254 -0.08987200260162354 -0.9552429914474487 0.28183799982070923
          0.6218439936637878 0.781548023223877 -0.049931999295949936 0.8895670175552368 0.452455997467041 -0.06288699805736542
          0.18087099492549896 -0.6540840268135071 -0.7344790101051331 -0.525173008441925 -0.8506219983100891 -0.02522600069642067
          -0.10896699875593185 -0.5740460157394409 -0.8115400075912476 0.2553659975528717 -0.04943300038576126 -0.9655799865722656
          0.3470990061759949 0.8162930011749268 -0.4617229998111725 -0.1037219986319542 0.4484890103340149 -0.8877500295639038
          -0.10704699903726578 0.9888889789581299 -0.1031470000743866 -0.022957999259233475 0.040072001516819 -0.9989330172538757
          -0.6021469831466675 0.13191699981689453 -0.7874119877815247 -0.04619299992918968 0.9247540235519409 0.3777509927749634
          0.5162299871444702 -0.0395359992980957 -0.8555369973182678 0.8418459892272949 -0.20935200154781342 -0.4974600076675415
          0.9604989886283875 -0.24233299493789673 0.13680499792099 -0.6003869771957397 0.1963990032672882 -0.7752180099487305
          0.42961299419403076 0.83440101146698 0.3452650010585785 0.36507898569107056 0.8008390069007874 -0.4747369885444641
          0.4434739947319031 0.8405640125274658 -0.3111009895801544 0.5678179860115051 0.8025619983673096 -0.18296599388122559
          0.24719400703907013 0.8024880290031433 -0.5430539846420288 0.4882639944553375 0.850612998008728 -0.1950799971818924
          -0.0007849999819882214 0.6836879849433899 -0.729773998260498 0.3127239942550659 0.7681919932365417 -0.5586450099945068
          0.6618189811706543 0.29983100295066833 -0.6870930194854736 0.8857229948043823 -0.19030700623989105 -0.4234110116958618
          0.6602889895439148 0.4112739861011505 -0.628387987613678 0.644802987575531 -0.7184339761734009 0.2609249949455261
          0.8349589705467224 0.34468400478363037 -0.42899399995803833 0.7809669971466064 0.22149799764156342 -0.5839769840240479
          0.6017889976501465 0.27607399225234985 -0.749422013759613 0.5524960160255432 -0.7950040102005005 0.2504329979419708
          0.32854199409484863 0.3086870014667511 -0.8926209807395935 0.1887660026550293 0.28818100690841675 -0.938785970211029
          -0.16734600067138672 -0.05361799895763397 0.9844390153884888 -0.24622699618339539 -0.06386400014162064 0.9671059846878052
          -0.2373020052909851 0.03413299843668938 0.9708359837532043 -0.07334599643945694 -0.08599399775266647 0.9935920238494873
          -0.3052609860897064 -0.15595099329948425 0.939411997795105 -0.4503229856491089 -0.6412529945373535 0.621291995048523
          -0.05039500072598457 -0.26692599058151245 0.9623990058898926 0.4907990097999573 -0.8627259731292725 -0.12174200266599655
          0.07447099685668945 -0.6110479831695557 0.7880820035934448 0.17836099863052368 -0.9351760149002075 -0.30599498748779297
          0.2942509949207306 -0.9400140047073364 -0.17259900271892548 -0.0527070015668869 -0.9620590209960938 -0.26770201325416565
          0.3414199948310852 -0.9397130012512207 -0.01929599978029728 0.25478899478912354 -0.6206799745559692 -0.7415109872817993
          0.22767099738121033 -0.6186410188674927 -0.7519639730453491 0.5726410150527954 -0.8197339773178101 0.010877000167965889
          0.2920359969139099 -0.9564070105552673 0.000003000000106112566 -0.6146050095558167 0.45484501123428345 0.6444979906082153
          -0.6082339882850647 -0.08868300169706345 0.7887880206108093 -0.6469870209693909 -0.7624549865722656 -0.008365999907255173
          0.16569499671459198 -0.9523730278015137 0.25598999857902527 -0.5587599873542786 -0.8255850076675415 0.07872000336647034
          0.4559899866580963 -0.8082200288772583 0.3726300001144409 0.05809300020337105 -0.9504370093345642 0.3054429888725281
          0.11406800150871277 -0.8185629844665527 0.5629770159721375 0.25507599115371704 -0.8444520235061646 0.4709959924221039
          0.17530499398708344 -0.9649040102958679 0.19552099704742432 0.1577260047197342 -0.9871839880943298 -0.024289999157190323
          -0.4011330008506775 -0.905348002910614 0.13941900432109833 -0.9002990126609802 -0.38572901487350464 0.2016800045967102
          -0.5295220017433167 -0.8443599939346313 -0.08162599802017212 -0.3468100130558014 -0.9008359909057617 0.2611840069293976
          0.13838499784469604 -0.8842840194702148 0.4459730088710785 0.46150800585746765 -0.8652859926223755 0.1956769973039627
          0.3767150044441223 -0.8992109894752502 0.22249600291252136 -0.7863640189170837 -0.15167799592018127 -0.5988529920578003
          -0.7807270288467407 0.1331239938735962 -0.610526978969574 -0.40116700530052185 -0.4208489954471588 -0.8136039972305298
          -0.21695299446582794 -0.9742469787597656 -0.06143200024962425 -0.9949280023574829 0.02837499976158142 0.09650100022554398
          -0.9274410009384155 -0.21527500450611115 -0.30579298734664917 -0.8945490121841431 0.430961012840271 -0.11855600029230118
          -0.1634729951620102 -0.5570889711380005 -0.8142039775848389 0.4438689947128296 -0.894976019859314 0.04470499977469444
          0.20455999672412872 -0.2610349953174591 -0.9434069991111755 0.8354480266571045 -0.3537519872188568 -0.4205789864063263
          0.6832360029220581 -0.34193599224090576 -0.6451889872550964 -0.3053719997406006 0.2352990061044693 -0.9227039813995361
          -0.23842300474643707 0.042114999145269394 -0.9702479839324951 -0.7301899790763855 -0.5207589864730835 -0.44230398535728455
          0.10558100044727325 0.426690012216568 0.8982139825820923 0.2736069858074188 -0.3174870014190674 0.9079319834709167
          -0.8130289912223816 0.5666069984436035 -0.1339379996061325 -0.43039199709892273 0.2524079978466034 -0.8666329979896545
          0.262470006942749 -0.2185489982366562 -0.939864993095398 -0.30733299255371094 -0.03616299852728844 -0.9509149789810181
          -0.7313879728317261 0.18737700581550598 -0.6557139754295349 -0.5590699911117554 0.3406670093536377 -0.7559009790420532
          -0.523311972618103 0.4031819999217987 -0.7507259845733643 -0.16100899875164032 0.21929700672626495 -0.9622809886932373
          -0.48278599977493286 -0.6661059856414795 -0.5685250163078308 -0.6893010139465332 -0.5130419731140137 -0.5115200281143188
          -0.9672160148620605 -0.22972999513149261 0.10824500024318695 0.03982599824666977 -0.9663529992103577 -0.2541179955005646
          -0.5103650093078613 -0.8130930066108704 -0.2800140082836151 -0.3615129888057709 -0.8518679738044739 -0.3789840042591095
          -0.12210399657487869 -0.8644490242004395 -0.4876660108566284 -0.16916899383068085 -0.812171995639801 -0.5583540201187134
          -0.3058300018310547 -0.9520750045776367 0.004666000138968229 0.21693800389766693 -0.974357008934021 0.059714000672101974
          -0.8429909944534302 -0.22479499876499176 0.48870599269866943 -0.2819310128688812 -0.6132779717445374 0.7378379702568054
          -0.34206101298332214 -0.8917719721794128 0.29620400071144104 -0.8125050067901611 -0.45136499404907227 0.368925005197525
          -0.38368600606918335 -0.6595489978790283 0.6463590264320374 -0.47382599115371704 -0.5032950043678284 0.7226219773292542
          0.9270920157432556 0.24696999788284302 0.28196701407432556 0.5121229887008667 -0.5228739976882935 -0.6814190149307251
          -0.0611409991979599 -0.3265399932861328 -0.9432039856910706 0.7474169731140137 -0.6643360257148743 -0.005030999891459942
          0.8481540083885193 -0.41013601422309875 0.33529600501060486 0.9999729990959167 0.007335000205785036 0.000019999999494757503
          0.924793004989624 0.14348000288009644 0.35238000750541687 0.8589270114898682 0.1773580014705658 0.48040398955345154
          0.740136981010437 0.5656110048294067 0.36370500922203064 -0.2851339876651764 -0.07695700228214264 -0.9553930163383484
          0.4663580060005188 -0.8845869898796082 -0.0039450000040233135 0.024046000093221664 -0.05381600186228752 0.9982609748840332
          -0.38426199555397034 0.026776999235153198 -0.9228360056877136 -0.36297300457954407 -0.7316820025444031 -0.5769680142402649
          -0.4530639946460724 -0.8914690017700195 0.004157000221312046 0.3392699956893921 -0.6839969754219055 0.6457899808883667
          0.3018450140953064 0.3927359879016876 -0.8687049746513367 0.11718899756669998 0.13302600383758545 -0.9841600060462952
          -0.2833450138568878 -0.017782999202609062 -0.958853006362915 -0.3577069938182831 -0.7342100143432617 0.5770450234413147
          -0.1231750026345253 -0.9193099737167358 0.37376099824905396 0.017666999250650406 -0.0024530000519007444 0.9998409748077393
          0.006560000125318766 0.10774999856948853 0.994156002998352 -0.003384999930858612 0.16453200578689575 0.9863659739494324
          0.7799580097198486 -0.33461299538612366 -0.5288659930229187 0.8819640278816223 -0.47131699323654175 0.00042100000428035855
          0.9257460236549377 -0.32719001173973083 -0.18957999348640442 0.8576160073280334 0.11587800085544586 -0.5010650157928467
          0.8819360136985779 0.39004001021385193 -0.2646839916706085 0.9342820048332214 0.355226993560791 0.030510999262332916
          0.833184003829956 0.3152120113372803 -0.45436298847198486 0.4762740135192871 0.19504499435424805 -0.8573920130729675
          -0.22905899584293365 -0.585644006729126 0.7775300145149231 -0.3997170031070709 -0.6626710295677185 0.6333190202713013
          -0.10167499631643295 -0.46509701013565063 0.8794010281562805 -0.45631399750709534 -0.813139021396637 -0.3613620102405548
          -0.690002977848053 -0.6754630208015442 0.2600870132446289 0.6784729957580566 0.5428779721260071 0.49493199586868286
          0.7798870205879211 -0.15596500039100647 0.6061769723892212 -0.17214499413967133 -0.5196560025215149 -0.8368539810180664
          -0.5261780023574829 -0.8503190279006958 0.009697999805212021 0.1035889983177185 0.9131929874420166 -0.3941429853439331
          0.13212400674819946 0.9002709984779358 -0.41479700803756714 0.026830000802874565 -0.6130809783935547 -0.7895650267601013
          -0.18440000712871552 0.8133839964866638 0.5517269968986511 -0.3469339907169342 0.6130380034446716 0.7098039984703064
          -0.9379860162734985 0.12480799853801727 -0.3234280049800873 0.19726400077342987 0.15064600110054016 -0.9687070250511169
          0.6101250052452087 -0.33244800567626953 -0.7191839814186096 -0.4173850119113922 0.24968700110912323 -0.8737540245056152
          0.6720889806747437 -0.6909739971160889 0.26618000864982605 0.5152860283851624 -0.43237999081611633 0.739952027797699
          -0.8370500206947327 0.21539700031280518 -0.5029420256614685 0.5158020257949829 0.8363990187644958 -0.1854339987039566
          0.564283013343811 0.45990899205207825 -0.6856160163879395 0.9616510272026062 0.2662450075149536 0.06588300317525864
          0.8709120154380798 0.36290499567985535 -0.3313780128955841 0.9745010137557983 -0.12894199788570404 -0.18363699316978455