<?xml version="1.0"?>
<VTKFile type="PolyData" version="0.1" byte_order="LittleEndian" header_type="UInt32" compressor="vtkZLibDataCompressor">
  <PolyData>
    <Piece NumberOfPoints="768" NumberOfVerts="0" NumberOfLines="0" NumberOfStrips="160" NumberOfPolys="0">
      <PointData Normals="Normals" TCoords="TextureCoords">
        <DataArray type="Float32" Name="Normals" NumberOfComponents="3" format="ascii" RangeMin="0.9999999675948458" RangeMax="1.0000000258904091">
          0.002617890713736415 -0.0031415000557899475 0.9999916553497314 0.2588177025318146 -0.0031415000557899475 0.9659211039543152
          0.49999746680259705 -0.0031415000557899475 0.8660211563110352 0.7052496075630188 -0.0031415000557899475 0.7089521288871765
          0.708952009677887 -0.0031415000557899475 0.7052497267723083 0.8660210967063904 -0.0031415000557899475 0.4999975860118866
          0.9659210443496704 -0.0031415000557899475 0.2588178217411041 0.9999916553497314 -0.0031415000557899475 0.002618021797388792
          0.9999916553497314 -0.0031415000557899475 -0.002617934253066778 0.9659210443496704 -0.0031415000557899475 -0.25881773233413696
          0.8660211563110352 -0.0031415000557899475 -0.49999749660491943 0.7089520692825317 -0.0031415000557899475 -0.7052496671676636
          0.7052496671676636 -0.0031415000557899475 -0.7089520692825317 0.4999975562095642 -0.0031415000557899475 -0.8660210967063904
          0.25881776213645935 -0.0031415000557899475 -0.9659210443496704 0.002617978025227785 -0.0031415000557899475 -0.9999916553497314
          -0.002617978025227785 -0.0031415000557899475 -0.9999916553497314 -0.25881776213645935 -0.0031415000557899475 -0.9659210443496704
          -0.4999975562095642 -0.0031415000557899475 -0.8660210967063904 -0.7052496671676636 -0.0031415000557899475 -0.7089520692825317
          -0.7089520692825317 -0.0031415000557899475 -0.7052496671676636 -0.8660211563110352 -0.0031415000557899475 -0.49999749660491943
          -0.9659210443496704 -0.0031415000557899475 -0.25881773233413696 -0.9999916553497314 -0.0031415000557899475 -0.002617934253066778
          -0.9999916553497314 -0.0031415000557899475 0.002618021797388792 -0.9659210443496704 -0.0031415000557899475 0.2588178217411041
          -0.8660210967063904 -0.0031415000557899475 0.4999975860118866 -0.708952009677887 -0.0031415000557899475 0.7052497267723083
          -0.7052496075630188 -0.0031415000557899475 0.7089521288871765 -0.49999746680259705 -0.0031415000557899475 0.8660211563110352
          -0.2588177025318146 -0.0031415000557899475 0.9659211039543152 -0.002617890713736415 -0.0031415000557899475 0.9999916553497314
          0.0024897742550820112 -0.3090169131755829 0.951053261756897 0.24615147709846497 -0.3090169131755829 0.9186500906944275
          0.47552821040153503 -0.3090169131755829 0.8236391544342041 0.6707355976104736 -0.3090169131755829 0.6742568612098694
          0.6742568016052246 -0.3090169131755829 0.6707356572151184 0.8236390948295593 -0.3090169131755829 0.4755283296108246
          0.9186500906944275 -0.3090169131755829 0.24615159630775452 0.951053261756897 -0.3090169131755829 0.0024898990523070097
          0.951053261756897 -0.3090169131755829 -0.0024898159317672253 0.9186500906944275 -0.3090169131755829 -0.24615150690078735
          0.8236391544342041 -0.3090169131755829 -0.4755282402038574 0.6742568612098694 -0.3090169131755829 -0.6707355976104736
          0.6707356572151184 -0.3090169131755829 -0.6742568016052246 0.4755282700061798 -0.3090169131755829 -0.8236390948295593
          0.24615155160427094 -0.3090169131755829 -0.9186500906944275 0.0024898573756217957 -0.3090169131755829 -0.951053261756897
          -0.0024898573756217957 -0.3090169131755829 -0.951053261756897 -0.24615155160427094 -0.3090169131755829 -0.9186500906944275
          -0.4755282700061798 -0.3090169131755829 -0.8236390948295593 -0.6707356572151184 -0.3090169131755829 -0.6742568016052246
          -0.6742568612098694 -0.3090169131755829 -0.6707355976104736 -0.8236391544342041 -0.3090169131755829 -0.4755282402038574
          -0.9186500906944275 -0.3090169131755829 -0.24615150690078735 -0.951053261756897 -0.3090169131755829 -0.0024898159317672253
          -0.951053261756897 -0.3090169131755829 0.0024898990523070097 -0.9186500906944275 -0.3090169131755829 0.24615159630775452
          -0.8236390948295593 -0.3090169131755829 0.4755283296108246 -0.6742568016052246 -0.3090169131755829 0.6707356572151184
          -0.6707355976104736 -0.3090169131755829 0.6742568612098694 -0.47552821040153503 -0.3090169131755829 0.8236391544342041
          -0.24615147709846497 -0.3090169131755829 0.9186500906944275 -0.0024897742550820112 -0.3090169131755829 0.951053261756897
          0.002117928583174944 -0.5877851843833923 0.8090142607688904 0.20938895642757416 -0.5877851843833923 0.7814504504203796
          0.40450847148895264 -0.5877851843833923 0.7006293535232544 0.5705617666244507 -0.5877851843833923 0.5735571384429932
          0.5735570788383484 -0.5877851843833923 0.5705618858337402 0.7006292939186096 -0.5877851843833923 0.4045085608959198
          0.7814504504203796 -0.5877851843833923 0.20938906073570251 0.8090142607688904 -0.5877851843833923 0.00211803475394845
          0.8090142607688904 -0.5877851843833923 -0.0021179639734327793 0.7814504504203796 -0.5877851843833923 -0.20938898622989655
          0.7006292939186096 -0.5877851843833923 -0.404508501291275 0.5735571384429932 -0.5877851843833923 -0.5705618262290955
          0.5705618262290955 -0.5877851843833923 -0.5735571384429932 0.4045085310935974 -0.5877851843833923 -0.7006292939186096
          0.20938901603221893 -0.5877851843833923 -0.7814504504203796 0.0021179993636906147 -0.5877851843833923 -0.8090142607688904
          -0.0021179993636906147 -0.5877851843833923 -0.8090142607688904 -0.20938901603221893 -0.5877851843833923 -0.7814504504203796
          -0.4045085310935974 -0.5877851843833923 -0.7006292939186096 -0.5705618262290955 -0.5877851843833923 -0.5735571384429932
          -0.5735571384429932 -0.5877851843833923 -0.5705618262290955 -0.7006292939186096 -0.5877851843833923 -0.404508501291275
          -0.7814504504203796 -0.5877851843833923 -0.20938898622989655 -0.8090142607688904 -0.5877851843833923 -0.0021179639734327793
          -0.8090142607688904 -0.5877851843833923 0.00211803475394845 -0.7814504504203796 -0.5877851843833923 0.20938906073570251
          -0.7006292939186096 -0.5877851843833923 0.4045085608959198 -0.5735570788383484 -0.5877851843833923 0.5705618858337402
          -0.5705617666244507 -0.5877851843833923 0.5735571384429932 -0.40450847148895264 -0.5877851843833923 0.7006293535232544
          -0.20938895642757416 -0.5877851843833923 0.7814504504203796 -0.002117928583174944 -0.5877851843833923 0.8090142607688904
          0.001538765267468989 -0.8090169429779053 0.5877832770347595 0.15212997794151306 -0.8090169429779053 0.5677570104598999
          0.29389262199401855 -0.8090169429779053 0.5090370178222656 0.4145374000072479 -0.8090169429779053 0.416713684797287
          0.4167136251926422 -0.8090169429779053 0.4145374596118927 0.5090369582176208 -0.8090169429779053 0.29389268159866333
          0.5677570104598999 -0.8090169429779053 0.15213005244731903 0.5877832770347595 -0.8090169429779053 0.0015388423344120383
          0.5877832770347595 -0.8090169429779053 -0.0015387908788397908 0.5677570104598999 -0.8090169429779053 -0.15213000774383545
          0.5090370178222656 -0.8090169429779053 -0.29389262199401855 0.4167136549949646 -0.8090169429779053 -0.4145374298095703
          0.4145374596118927 -0.8090169429779053 -0.4167136549949646 0.29389265179634094 -0.8090169429779053 -0.5090370178222656
          0.15213003754615784 -0.8090169429779053 -0.5677570104598999 0.0015388166066259146 -0.8090169429779053 -0.5877832770347595
          -0.0015388166066259146 -0.8090169429779053 -0.5877832770347595 -0.15213003754615784 -0.8090169429779053 -0.5677570104598999
          -0.29389265179634094 -0.8090169429779053 -0.5090370178222656 -0.4145374596118927 -0.8090169429779053 -0.4167136549949646
          -0.4167136549949646 -0.8090169429779053 -0.4145374298095703 -0.5090370178222656 -0.8090169429779053 -0.29389262199401855
          -0.5677570104598999 -0.8090169429779053 -0.15213000774383545 -0.5877832770347595 -0.8090169429779053 -0.0015387908788397908
          -0.5877832770347595 -0.8090169429779053 0.0015388423344120383 -0.5677570104598999 -0.8090169429779053 0.15213005244731903
          -0.5090369582176208 -0.8090169429779053 0.29389268159866333 -0.4167136251926422 -0.8090169429779053 0.4145374596118927
          -0.4145374000072479 -0.8090169429779053 0.416713684797287 -0.29389262199401855 -0.8090169429779053 0.5090370178222656
          -0.15212997794151306 -0.8090169429779053 0.5677570104598999 -0.001538765267468989 -0.8090169429779053 0.5877832770347595
          0.000808976823464036 -0.9510564804077148 0.30901598930358887 0.07997947186231613 -0.9510564804077148 0.2984875440597534
          0.15450850129127502 -0.9510564804077148 0.2676166296005249 0.2179352343082428 -0.9510564804077148 0.21907936036586761
          0.21907933056354523 -0.9510564804077148 0.21793526411056519 0.2676165997982025 -0.9510564804077148 0.1545085310935974
          0.2984875440597534 -0.9510564804077148 0.07997950911521912 0.30901598930358887 -0.9510564804077148 0.0008090173359960318
          0.30901598930358887 -0.9510564804077148 -0.0008089903276413679 0.2984875440597534 -0.9510564804077148 -0.07997948676347733
          0.2676166296005249 -0.9510564804077148 -0.15450851619243622 0.21907936036586761 -0.9510564804077148 -0.217935249209404
          0.217935249209404 -0.9510564804077148 -0.21907934546470642 0.1545085310935974 -0.9510564804077148 -0.2676165997982025
          0.07997950166463852 -0.9510564804077148 -0.2984875440597534 0.0008090038318186998 -0.9510564804077148 -0.30901598930358887
          -0.0008090038318186998 -0.9510564804077148 -0.30901598930358887 -0.07997950166463852 -0.9510564804077148 -0.2984875440597534
          -0.1545085310935974 -0.9510564804077148 -0.2676165997982025 -0.217935249209404 -0.9510564804077148 -0.21907934546470642
          -0.21907936036586761 -0.9510564804077148 -0.217935249209404 -0.2676166296005249 -0.9510564804077148 -0.15450851619243622
          -0.2984875440597534 -0.9510564804077148 -0.07997948676347733 -0.30901598930358887 -0.9510564804077148 -0.0008089903276413679
          -0.30901598930358887 -0.9510564804077148 0.0008090173359960318 -0.2984875440597534 -0.9510564804077148 0.07997950911521912
          -0.2676165997982025 -0.9510564804077148 0.1545085310935974 -0.21907933056354523 -0.9510564804077148 0.21793526411056519
          -0.2179352343082428 -0.9510564804077148 0.21907936036586761 -0.15450850129127502 -0.9510564804077148 0.2676166296005249
          -0.07997947186231613 -0.9510564804077148 0.2984875440597534 -0.000808976823464036 -0.9510564804077148 0.30901598930358887
          0.000008224487828556448 -0.9999950528144836 0.0031416204292327166 0.0008131137583404779 -0.9999950528144836 0.0030345828272402287
          0.0015708154533058405 -0.9999950528144836 0.00272073270753026 0.0022156452760100365 -0.9999950528144836 0.0022272770293056965
          0.002227276796475053 -0.9999950528144836 0.00221564550884068 0.0027207324746996164 -0.9999950528144836 0.001570815802551806
          0.0030345828272402287 -0.9999950528144836 0.0008131141657941043 0.0031416204292327166 -0.9999950528144836 0.000008224899829656351
          0.0031416204292327166 -0.9999950528144836 -0.000008224625162256416 0.0030345828272402287 -0.9999950528144836 -0.0008131138747557998
          0.0027207324746996164 -0.9999950528144836 -0.0015708155697211623 0.0022272770293056965 -0.9999950528144836 -0.0022156452760100365
          0.00221564550884068 -0.9999950528144836 -0.002227276796475053 0.0015708156861364841 -0.9999950528144836 -0.0027207324746996164
          0.0008131140493787825 -0.9999950528144836 -0.0030345828272402287 0.000008224762495956384 -0.9999950528144836 -0.0031416204292327166
          -0.000008224762495956384 -0.9999950528144836 -0.0031416204292327166 -0.0008131140493787825 -0.9999950528144836 -0.0030345828272402287
          -0.0015708156861364841 -0.9999950528144836 -0.0027207324746996164 -0.00221564550884068 -0.9999950528144836 -0.002227276796475053
          -0.0022272770293056965 -0.9999950528144836 -0.0022156452760100365 -0.0027207324746996164 -0.9999950528144836 -0.0015708155697211623
          -0.0030345828272402287 -0.9999950528144836 -0.0008131138747557998 -0.0031416204292327166 -0.9999950528144836 -0.000008224625162256416
          -0.0031416204292327166 -0.9999950528144836 0.000008224899829656351 -0.0030345828272402287 -0.9999950528144836 0.0008131141657941043
          -0.0027207324746996164 -0.9999950528144836 0.001570815802551806 -0.002227276796475053 -0.9999950528144836 0.00221564550884068
          -0.0022156452760100365 -0.9999950528144836 0.0022272770293056965 -0.0015708154533058405 -0.9999950528144836 0.00272073270753026
          -0.0008131137583404779 -0.9999950528144836 0.0030345828272402287 -0.000008224487828556448 -0.9999950528144836 0.0031416204292327166
          -0.000008224258635891601 -0.9999950528144836 -0.0031415331177413464 -0.0008130911155603826 -0.9999950528144836 -0.0030344983097165823
          -0.0015707716811448336 -0.9999950528144836 -0.002720656804740429 -0.002215583575889468 -0.9999950528144836 -0.0022272150963544846
          -0.002227214863523841 -0.9999950528144836 -0.002215583808720112 -0.002720656804740429 -0.9999950528144836 -0.0015707721468061209
          -0.0030344983097165823 -0.9999950528144836 -0.000813091523014009 -0.0031415331177413464 -0.9999950528144836 -0.000008224670636991505
          -0.0031415331177413464 -0.9999950528144836 0.00000822439596959157 -0.0030344983097165823 -0.9999950528144836 0.0008130912901833653
          -0.002720656804740429 -0.9999950528144836 0.0015707717975601554 -0.0022272150963544846 -0.9999950528144836 0.002215583575889468
          -0.002215583808720112 -0.9999950528144836 0.002227214863523841 -0.0015707719139754772 -0.9999950528144836 0.002720656804740429
          -0.0008130914065986872 -0.9999950528144836 0.0030344983097165823 -0.000008224533303291537 -0.9999950528144836 0.0031415331177413464
          0.000008224533303291537 -0.9999950528144836 0.0031415331177413464 0.0008130914065986872 -0.9999950528144836 0.0030344983097165823
          0.0015707719139754772 -0.9999950528144836 0.002720656804740429 0.002215583808720112 -0.9999950528144836 0.002227214863523841
          0.0022272150963544846 -0.9999950528144836 0.002215583575889468 0.002720656804740429 -0.9999950528144836 0.0015707717975601554
          0.0030344983097165823 -0.9999950528144836 0.0008130912901833653 0.0031415331177413464 -0.9999950528144836 0.00000822439596959157
          0.0031415331177413464 -0.9999950528144836 -0.000008224670636991505 0.0030344983097165823 -0.9999950528144836 -0.000813091523014009
          0.002720656804740429 -0.9999950528144836 -0.0015707721468061209 0.002227214863523841 -0.9999950528144836 -0.002215583808720112
          0.002215583575889468 -0.9999950528144836 -0.0022272150963544846 0.0015707716811448336 -0.9999950528144836 -0.002720656804740429
          0.0008130911155603826 -0.9999950528144836 -0.0030344983097165823 0.000008224258635891601 -0.9999950528144836 -0.0031415331177413464
          -0.0008089765906333923 -0.9510565400123596 -0.3090158998966217 -0.07997944951057434 -0.9510565400123596 -0.29848748445510864
          -0.15450845658779144 -0.9510565400123596 -0.26761654019355774 -0.21793517470359802 -0.9510565400123596 -0.21907930076122284
          -0.21907927095890045 -0.9510565400123596 -0.2179352045059204 -0.26761654019355774 -0.9510565400123596 -0.15450850129127502
          -0.29848745465278625 -0.9510565400123596 -0.07997948676347733 -0.3090158998966217 -0.9510565400123596 -0.0008090171031653881
          -0.3090158998966217 -0.9510565400123596 0.0008089900948107243 -0.29848745465278625 -0.9510565400123596 0.07997946441173553
          -0.26761654019355774 -0.9510565400123596 0.15450847148895264 -0.21907930076122284 -0.9510565400123596 0.21793518960475922
          -0.21793518960475922 -0.9510565400123596 0.21907928586006165 -0.15450848639011383 -0.9510565400123596 0.26761654019355774
          -0.07997947931289673 -0.9510565400123596 0.29848745465278625 -0.0008090035989880562 -0.9510565400123596 0.3090158998966217
          0.0008090035989880562 -0.9510565400123596 0.3090158998966217 0.07997947931289673 -0.9510565400123596 0.29848745465278625
          0.15450848639011383 -0.9510565400123596 0.26761654019355774 0.21793518960475922 -0.9510565400123596 0.21907928586006165
          0.21907930076122284 -0.9510565400123596 0.21793518960475922 0.26761654019355774 -0.9510565400123596 0.15450847148895264
          0.29848745465278625 -0.9510565400123596 0.07997946441173553 0.3090158998966217 -0.9510565400123596 0.0008089900948107243
          0.3090158998966217 -0.9510565400123596 -0.0008090171031653881 0.29848745465278625 -0.9510565400123596 -0.07997948676347733
          0.26761654019355774 -0.9510565400123596 -0.15450850129127502 0.21907927095890045 -0.9510565400123596 -0.2179352045059204
          0.21793517470359802 -0.9510565400123596 -0.21907930076122284 0.15450845658779144 -0.9510565400123596 -0.26761654019355774
          0.07997944951057434 -0.9510565400123596 -0.29848748445510864 0.0008089765906333923 -0.9510565400123596 -0.3090158998966217
          -0.0015387650346383452 -0.80901700258255 -0.5877832174301147 -0.15212996304035187 -0.80901700258255 -0.5677569508552551
          -0.29389259219169617 -0.80901700258255 -0.5090369582176208 -0.41453737020492554 -0.80901700258255 -0.4167136251926422
          -0.41671356558799744 -0.80901700258255 -0.4145374298095703 -0.5090368986129761 -0.80901700258255 -0.29389265179634094
          -0.5677569508552551 -0.80901700258255 -0.15213003754615784 -0.5877832174301147 -0.80901700258255 -0.0015388421015813947
          -0.5877832174301147 -0.80901700258255 0.001538790762424469 -0.5677569508552551 -0.80901700258255 0.15212999284267426
          -0.5090369582176208 -0.80901700258255 0.29389259219169617 -0.4167136251926422 -0.80901700258255 0.41453737020492554
          -0.4145374000072479 -0.80901700258255 0.4167135953903198 -0.29389262199401855 -0.80901700258255 0.5090369582176208
          -0.15213002264499664 -0.80901700258255 0.5677569508552551 -0.001538816373795271 -0.80901700258255 0.5877832174301147
          0.001538816373795271 -0.80901700258255 0.5877832174301147 0.15213002264499664 -0.80901700258255 0.5677569508552551
          0.29389262199401855 -0.80901700258255 0.5090369582176208 0.4145374000072479 -0.80901700258255 0.4167135953903198
          0.4167136251926422 -0.80901700258255 0.41453737020492554 0.5090369582176208 -0.80901700258255 0.29389259219169617
          0.5677569508552551 -0.80901700258255 0.15212999284267426 0.5877832174301147 -0.80901700258255 0.001538790762424469
          0.5877832174301147 -0.80901700258255 -0.0015388421015813947 0.5677569508552551 -0.80901700258255 -0.15213003754615784
          0.5090368986129761 -0.80901700258255 -0.29389265179634094 0.41671356558799744 -0.80901700258255 -0.4145374298095703
          0.41453737020492554 -0.80901700258255 -0.4167136251926422 0.29389259219169617 -0.80901700258255 -0.5090369582176208
          0.15212996304035187 -0.80901700258255 -0.5677569508552551 0.0015387650346383452 -0.80901700258255 -0.5877832174301147
          -0.0021179283503443003 -0.5877852439880371 -0.8090142011642456 -0.20938894152641296 -0.5877852439880371 -0.7814503908157349
          -0.40450844168663025 -0.5877852439880371 -0.7006292939186096 -0.5705617666244507 -0.5877852439880371 -0.5735571384429932
          -0.5735570788383484 -0.5877852439880371 -0.5705618262290955 -0.7006292343139648 -0.5877852439880371 -0.4045085310935974
          -0.7814503908157349 -0.5877852439880371 -0.20938904583454132 -0.8090142011642456 -0.5877852439880371 -0.0021180345211178064
          -0.8090142011642456 -0.5877852439880371 0.0021179637406021357 -0.7814503908157349 -0.5877852439880371 0.20938897132873535
          -0.7006292939186096 -0.5877852439880371 0.40450847148895264 -0.5735570788383484 -0.5877852439880371 0.5705617666244507
          -0.5705617666244507 -0.5877852439880371 0.5735570788383484 -0.404508501291275 -0.5877852439880371 0.7006292343139648
          -0.20938901603221893 -0.5877852439880371 0.7814503908157349 -0.002117999130859971 -0.5877852439880371 0.8090142011642456
          0.002117999130859971 -0.5877852439880371 0.8090142011642456 0.20938901603221893 -0.5877852439880371 0.7814503908157349
          0.404508501291275 -0.5877852439880371 0.7006292343139648 0.5705617666244507 -0.5877852439880371 0.5735570788383484
          0.5735570788383484 -0.5877852439880371 0.5705617666244507 0.7006292939186096 -0.5877852439880371 0.40450847148895264
          0.7814503908157349 -0.5877852439880371 0.20938897132873535 0.8090142011642456 -0.5877852439880371 0.0021179637406021357
          0.8090142011642456 -0.5877852439880371 -0.0021180345211178064 0.7814503908157349 -0.5877852439880371 -0.20938904583454132
          0.7006292343139648 -0.5877852439880371 -0.4045085310935974 0.5735570788383484 -0.5877852439880371 -0.5705618262290955
          0.5705617666244507 -0.5877852439880371 -0.5735571384429932 0.40450844168663025 -0.5877852439880371 -0.7006292939186096
          0.20938894152641296 -0.5877852439880371 -0.7814503908157349 0.0021179283503443003 -0.5877852439880371 -0.8090142011642456
          -0.0024897742550820112 -0.30901700258255005 -0.951053261756897 -0.24615146219730377 -0.30901700258255005 -0.9186500906944275
          -0.47552821040153503 -0.30901700258255005 -0.8236391544342041 -0.6707355380058289 -0.30901700258255005 -0.6742568612098694
          -0.6742567420005798 -0.30901700258255005 -0.6707356572151184 -0.8236390948295593 -0.30901700258255005 -0.4755282998085022
          -0.9186500310897827 -0.30901700258255005 -0.24615158140659332 -0.951053261756897 -0.30901700258255005 -0.002489898819476366
          -0.951053261756897 -0.30901700258255005 0.0024898156989365816 -0.9186500310897827 -0.30901700258255005 0.24615150690078735
          -0.8236390948295593 -0.30901700258255005 0.4755282402038574 -0.6742568016052246 -0.30901700258255005 0.6707355976104736
          -0.6707355976104736 -0.30901700258255005 0.6742568016052246 -0.4755282700061798 -0.30901700258255005 0.8236390948295593
          -0.24615155160427094 -0.30901700258255005 0.9186500310897827 -0.0024898573756217957 -0.30901700258255005 0.951053261756897
          0.0024898573756217957 -0.30901700258255005 0.951053261756897 0.24615155160427094 -0.30901700258255005 0.9186500310897827
          0.4755282700061798 -0.30901700258255005 0.8236390948295593 0.6707355976104736 -0.30901700258255005 0.6742568016052246
          0.6742568016052246 -0.30901700258255005 0.6707355976104736 0.8236390948295593 -0.30901700258255005 0.4755282402038574
          0.9186500310897827 -0.30901700258255005 0.24615150690078735 0.951053261756897 -0.30901700258255005 0.0024898156989365816
          0.951053261756897 -0.30901700258255005 -0.002489898819476366 0.9186500310897827 -0.30901700258255005 -0.24615158140659332
          0.8236390948295593 -0.30901700258255005 -0.4755282998085022 0.6742567420005798 -0.30901700258255005 -0.6707356572151184
          0.6707355380058289 -0.30901700258255005 -0.6742568612098694 0.47552821040153503 -0.30901700258255005 -0.8236391544342041
          0.24615146219730377 -0.30901700258255005 -0.9186500906944275 0.0024897742550820112 -0.30901700258255005 -0.951053261756897
          -0.002617890713736415 -0.0031415876001119614 -0.9999916553497314 -0.2588177025318146 -0.0031415876001119614 -0.9659211039543152
          -0.49999746680259705 -0.0031415876001119614 -0.8660211563110352 -0.7052496075630188 -0.0031415876001119614 -0.7089521288871765
          -0.708952009677887 -0.0031415876001119614 -0.7052497267723083 -0.8660210967063904 -0.0031415876001119614 -0.4999975860118866
          -0.9659210443496704 -0.0031415876001119614 -0.2588178217411041 -0.9999916553497314 -0.0031415876001119614 -0.002618021797388792
          -0.9999916553497314 -0.0031415876001119614 0.002617934253066778 -0.9659210443496704 -0.0031415876001119614 0.25881773233413696
          -0.8660211563110352 -0.0031415876001119614 0.49999749660491943 -0.7089520692825317 -0.0031415876001119614 0.7052496671676636
          -0.7052496671676636 -0.0031415876001119614 0.7089520692825317 -0.4999975562095642 -0.0031415876001119614 0.8660210967063904
          -0.25881776213645935 -0.0031415876001119614 0.9659210443496704 -0.002617978025227785 -0.0031415876001119614 0.9999916553497314
          0.002617978025227785 -0.0031415876001119614 0.9999916553497314 0.25881776213645935 -0.0031415876001119614 0.9659210443496704
          0.4999975562095642 -0.0031415876001119614 0.8660210967063904 0.7052496671676636 -0.0031415876001119614 0.7089520692825317
          0.7089520692825317 -0.0031415876001119614 0.7052496671676636 0.8660211563110352 -0.0031415876001119614 0.49999749660491943
          0.9659210443496704 -0.0031415876001119614 0.25881773233413696 0.9999916553497314 -0.0031415876001119614 0.002617934253066778
          0.9999916553497314 -0.0031415876001119614 -0.002618021797388792 0.9659210443496704 -0.0031415876001119614 -0.2588178217411041
          0.8660210967063904 -0.0031415876001119614 -0.4999975860118866 0.708952009677887 -0.0031415876001119614 -0.7052497267723083
          0.7052496075630188 -0.0031415876001119614 -0.7089521288871765 0.49999746680259705 -0.0031415876001119614 -0.8660211563110352
          0.2588177025318146 -0.0031415876001119614 -0.9659211039543152 0.002617890713736415 -0.0031415876001119614 -0.9999916553497314
          -0.002617890713736415 0.0031415876001119614 -0.9999916553497314 -0.2588177025318146 0.0031415876001119614 -0.9659211039543152
          -0.49999746680259705 0.0031415876001119614 -0.8660211563110352 -0.7052496075630188 0.0031415876001119614 -0.7089521288871765
          -0.708952009677887 0.0031415876001119614 -0.7052497267723083 -0.8660210967063904 0.0031415876001119614 -0.4999975860118866
          -0.9659210443496704 0.0031415876001119614 -0.2588178217411041 -0.9999916553497314 0.0031415876001119614 -0.002618021797388792
          -0.9999916553497314 0.0031415876001119614 0.002617934253066778 -0.9659210443496704 0.0031415876001119614 0.25881773233413696
          -0.8660211563110352 0.0031415876001119614 0.49999749660491943 -0.7089520692825317 0.0031415876001119614 0.7052496671676636
          -0.7052496671676636 0.0031415876001119614 0.7089520692825317 -0.4999975562095642 0.0031415876001119614 0.8660210967063904
          -0.25881776213645935 0.0031415876001119614 0.9659210443496704 -0.002617978025227785 0.0031415876001119614 0.9999916553497314
          0.002617978025227785 0.0031415876001119614 0.9999916553497314 0.25881776213645935 0.0031415876001119614 0.9659210443496704
          0.4999975562095642 0.0031415876001119614 0.8660210967063904 0.7052496671676636 0.0031415876001119614 0.7089520692825317
          0.7089520692825317 0.0031415876001119614 0.7052496671676636 0.8660211563110352 0.0031415876001119614 0.49999749660491943
          0.9659210443496704 0.0031415876001119614 0.25881773233413696 0.9999916553497314 0.0031415876001119614 0.002617934253066778
          0.9999916553497314 0.0031415876001119614 -0.002618021797388792 0.9659210443496704 0.0031415876001119614 -0.2588178217411041
          0.8660210967063904 0.0031415876001119614 -0.4999975860118866 0.708952009677887 0.0031415876001119614 -0.7052497267723083
          0.7052496075630188 0.0031415876001119614 -0.7089521288871765 0.49999746680259705 0.0031415876001119614 -0.8660211563110352
          0.2588177025318146 0.0031415876001119614 -0.9659211039543152 0.002617890713736415 0.0031415876001119614 -0.9999916553497314
          -0.0024897742550820112 0.30901700258255005 -0.951053261756897 -0.24615146219730377 0.30901700258255005 -0.9186500906944275
          -0.47552821040153503 0.30901700258255005 -0.8236391544342041 -0.6707355380058289 0.30901700258255005 -0.6742568612098694
          -0.6742567420005798 0.30901700258255005 -0.6707356572151184 -0.8236390948295593 0.30901700258255005 -0.4755282998085022
          -0.9186500310897827 0.30901700258255005 -0.24615158140659332 -0.951053261756897 0.30901700258255005 -0.002489898819476366
          -0.951053261756897 0.30901700258255005 0.0024898156989365816 -0.9186500310897827 0.30901700258255005 0.24615150690078735
          -0.8236390948295593 0.30901700258255005 0.4755282402038574 -0.6742568016052246 0.30901700258255005 0.6707355976104736
          -0.6707355976104736 0.30901700258255005 0.6742568016052246 -0.4755282700061798 0.30901700258255005 0.8236390948295593
          -0.24615155160427094 0.30901700258255005 0.9186500310897827 -0.0024898573756217957 0.30901700258255005 0.951053261756897
          0.0024898573756217957 0.30901700258255005 0.951053261756897 0.24615155160427094 0.30901700258255005 0.9186500310897827
          0.4755282700061798 0.30901700258255005 0.8236390948295593 0.6707355976104736 0.30901700258255005 0.6742568016052246
          0.6742568016052246 0.30901700258255005 0.6707355976104736 0.8236390948295593 0.30901700258255005 0.4755282402038574
          0.9186500310897827 0.30901700258255005 0.24615150690078735 0.951053261756897 0.30901700258255005 0.0024898156989365816
          0.951053261756897 0.30901700258255005 -0.002489898819476366 0.9186500310897827 0.30901700258255005 -0.24615158140659332
          0.8236390948295593 0.30901700258255005 -0.4755282998085022 0.6742567420005798 0.30901700258255005 -0.6707356572151184