<?xml version="1.0"?>
<VTKFile type="PolyData" version="0.1" byte_order="LittleEndian" header_type="UInt32" compressor="vtkZLibDataCompressor">
  <PolyData>
    <Piece NumberOfPoints="99" NumberOfVerts="0" NumberOfLines="0" NumberOfStrips="0" NumberOfPolys="194">
      <PointData Normals="Normals">
        <DataArray type="Float32" Name="Normals" NumberOfComponents="3" format="ascii" RangeMin="0.9999994296174514" RangeMax="1.0000006308184362">
          -0.8899750113487244 0.310137003660202 -0.334306001663208 -0.8861280083656311 0.14204999804496765 -0.4411340057849884
          -0.984279990196228 0.011049999855458736 -0.17626899480819702 -0.9132909774780273 0.403889000415802 -0.052657999098300934
          -0.6455370187759399 0.7052599787712097 -0.2930710017681122 -0.6656110286712646 0.37093499302864075 -0.6475870013237
          -0.8753640055656433 -0.26243600249290466 -0.40603500604629517 -0.6437159776687622 0.21490900218486786 -0.7344679832458496
          -0.6999099850654602 -0.7141029834747314 0.01348899956792593 -0.6314849853515625 -0.5794919729232788 0.5151860117912292
          -0.898518979549408 0.05550599843263626 0.4354099929332733 -0.5683929920196533 0.7928680181503296 0.21975000202655792
          -0.26276901364326477 0.9355199933052063 -0.23612399399280548 -0.30747300386428833 0.3935219943523407 -0.8663719892501831
          -0.12771600484848022 0.9887310266494751 0.07810500264167786 -0.06751900166273117 0.2105190008878708 -0.975255012512207
          -0.44912099838256836 -0.31088700890541077 -0.8376389741897583 0.013124999590218067 -0.9934329986572266 -0.11366300284862518
          0.17263300716876984 -0.8567519783973694 0.48597800731658936 -0.24312900006771088 -0.6027129888534546 0.7600160241127014
          -0.6132100224494934 0.30242401361465454 0.7297350168228149 -0.517300009727478 0.8258190155029297 0.22455300390720367
          -0.32177698612213135 0.776453971862793 -0.541828989982605 -0.25652098655700684 0.9657379984855652 0.03932499885559082
          -0.06823299825191498 0.1167289987206459 -0.9908170104026794 -0.29065999388694763 0.9423570036888123 -0.16576899588108063
          0.20374000072479248 -0.5949410200119019 -0.7775179743766785 0.3004390001296997 -0.2293509989976883 -0.925815999507904
          0.5726919770240784 0.05398600175976753 -0.8179910182952881 0.39816799759864807 -0.91730797290802 0.002902999985963106
          0.45761001110076904 -0.8477879762649536 0.2680470049381256 0.24111099541187286 -0.9383479952812195 0.2477249950170517
          -0.29371199011802673 -0.7704669833183289 0.5657860040664673 -0.2092680037021637 -0.38741201162338257 0.8978409767150879
          -0.45785900950431824 0.5479099750518799 0.7001150250434875 -0.5617520213127136 0.1082879975438118 0.8201879858970642
          -0.756987988948822 0.4479750096797943 0.47569701075553894 -0.4078559875488281 0.8967869877815247 -0.1715410053730011
          0.06962200254201889 0.8277119994163513 -0.5568180084228516 -0.02550799958407879 0.24714699387550354 -0.968641996383667
          -0.0669730007648468 0.9903010129928589 0.12173199653625488 -0.04157499969005585 0.9983869791030884 -0.03864999860525131
          -0.19754399359226227 -0.39732301235198975 -0.8961650133132935 -0.012393999844789505 0.982001006603241 -0.18846799433231354
          0.4395729899406433 -0.8572790026664734 -0.26804599165916443 -0.18574699759483337 -0.8194760084152222 -0.5421779751777649
          0.1418060064315796 -0.8100500106811523 -0.5689550042152405 0.15900099277496338 -0.9827200174331665 0.094760000705719
          -0.051729001104831696 -0.998324990272522 -0.025898000225424767 -0.41172200441360474 -0.8588759899139404 -0.30465900897979736
          -0.7946169972419739 -0.5905100107192993 0.14100299775600433 -0.7356979846954346 -0.0403049997985363 0.6761090159416199
          -0.4293380081653595 -0.017921000719070435 0.9029660224914551 -0.1882849931716919 -0.003522000042721629 0.9821079969406128
          -0.236394003033638 -0.05878499895334244 0.9698770046234131 -0.08207499980926514 0.844336986541748 0.5294899940490723
          0.4640290141105652 0.8511340022087097 -0.24545300006866455 0.29178300499916077 0.32351499795913696 -0.9001110196113586
          0.32141101360321045 0.9456490278244019 -0.049435000866651535 -0.25749000906944275 -0.41852501034736633 -0.8709400296211243
          0.4290440082550049 0.9025390148162842 0.036664001643657684 -0.2690199911594391 -0.9446560144424438 -0.18775799870491028
          -0.36109301447868347 -0.7594379782676697 -0.5411700010299683 0.04515400156378746 -0.9487159848213196 -0.3128890097141266
          0.10046900063753128 -0.987746000289917 -0.11942999809980392 -0.2176859974861145 -0.3790319859981537 0.8994150161743164
          -0.1578799933195114 0.2955380082130432 0.9421949982643127 0.35076799988746643 0.18465100228786469 0.9180769920349121
          0.3718149960041046 -0.21660000085830688 0.9026839733123779 0.41249901056289673 -0.018782999366521835 0.9107639789581299
          0.53090900182724 0.6104999780654907 0.5877289772033691 0.5856289863586426 0.615431010723114 -0.5275260210037231
          0.36794498562812805 0.9290519952774048 0.03844999894499779 0.4568380117416382 0.8805930018424988 -0.12591500580310822
          0.5532670021057129 0.18493300676345825 -0.8122169971466064 0.5613499879837036 0.8023359775543213 0.2028370052576065
          0.4953410029411316 -0.5443819761276245 -0.676967978477478 0.7169039845466614 0.41828200221061707 0.5577539801597595
          -0.18700100481510162 -0.9585090279579163 -0.2151540070772171 0.01926100067794323 -0.9916530251502991 0.1274929940700531
          0.2899720072746277 -0.9300299882888794 -0.22574500739574432 0.2929289937019348 -0.8794800043106079 -0.37511101365089417
          0.24481099843978882 -0.9666900038719177 -0.07468699663877487 0.6370390057563782 -0.4948529899120331 0.59101802110672
          0.4124230146408081 0.1414940059185028 0.8999369740486145 0.30302199721336365 0.16469299793243408 0.9386450052261353
          0.30532801151275635 0.29861700534820557 0.9042140245437622 0.5849930047988892 -0.03551400080323219 0.810259997844696
          0.9210990071296692 0.26311400532722473 -0.28696298599243164 0.6302120089530945 0.7361909747123718 0.24669000506401062
          0.6406099796295166 0.4650759994983673 0.6110010147094727 0.7857409715652466 -0.6185470223426819 -0.003235999960452318
          0.4062750041484833 -0.9086480140686035 -0.09643500298261642 0.1875309944152832 -0.9518539905548096 0.24250200390815735
          0.36033299565315247 -0.9323059916496277 0.031072000041604042 0.45708000659942627 -0.7569310069084167 0.4670470058917999
          0.7110390067100525 -0.3758159875869751 0.5942950248718262 0.8676279783248901 -0.4888420104980469 0.09085900336503983
          0.9344689846038818 0.10071899741888046 0.34150001406669617
          <InformationKey name="L2_NORM_RANGE" location="vtkDataArray" length="2">
            <Value index="0">
              0.99999942962
            </Value>
            <Value index="1">
              1.0000006308
            </Value>
          </InformationKey>
        </DataArray>
      </PointData>
      <CellData>
      </CellData>
      <Points>
        <DataArray type="Float32" Name="Points" NumberOfComponents="3" format="ascii" RangeMin="0.004856693551380012" RangeMax="0.030845420526398205">
          -0.015336000360548496 -0.0017089999746531248 -0.0050200000405311584 -0.014888999983668327 -0.004263000097125769 -0.007677000015974045
          -0.017534000799059868 -0.005772999953478575 -0.0016720000421628356 -0.016408000141382217 -0.0009159999899566174 0.0011399999493733048
          -0.009812000207602978 0.008402000181376934 -0.00903400033712387 -0.008588000200688839 0.00036299999919719994 -0.016332000494003296
          -0.015134000219404697 -0.009391999803483486 -0.0064690001308918 -0.008108999580144882 -0.002377999946475029 -0.019176000729203224
          -0.016145000234246254 -0.01116000022739172 -0.000750000006519258 -0.01689399965107441 -0.008736999705433846 0.0036319999489933252
          -0.017212999984622 -0.00430600019171834 0.005621000193059444 -0.01183400023728609 0.00648899981752038 0.002471999963745475
          -0.0024029999040067196 0.009072000160813332 -0.015097999945282936 -0.0018189999973401427 0.00595800019800663 -0.018557999283075333
          -0.004040000028908253 0.008542000316083431 -0.005741000175476074 -0.0018489999929443002 0.0007089999853633344 -0.01858000084757805
          -0.008155999705195427 -0.0103150000795722 -0.019209999591112137 -0.00950899999588728 -0.01384000014513731 -0.01159099955111742
          -0.011753000319004059 -0.011068999767303467 0.0013500000350177288 -0.012790000066161156 -0.0044639999978244305 0.007534999866038561
          -0.013199999928474426 0.0009030000073835254 0.010083000175654888 -0.006053000222891569 0.006568000186234713 0.005702999886125326
          0.004224000032991171 0.01054100040346384 -0.016662999987602234 0.0027860000263899565 0.00926399976015091 -0.00848000030964613
          0.004404000006616116 0.008107000030577183 -0.017781000584363937 0.0010969999711960554 0.009358000010251999 0.0011859999503940344
          -0.00145800004247576 -0.00790799967944622 -0.02114100009202957 0.004364999942481518 0.0013569999719038606 -0.017810000106692314
          0.004701000172644854 -0.003949000034481287 -0.01992500014603138 -0.002951999893411994 -0.009809999726712704 -0.012652999721467495
          -0.003984000068157911 -0.009891999885439873 -0.006742999888956547 -0.005342999938875437 -0.00635500019416213 0.0011530000483617187
          -0.006901999935507774 -0.002759000053629279 0.010219000279903412 -0.007451000157743692 -0.000893999997060746 0.013429000042378902
          -0.007311999797821045 0.002795000094920397 0.012765999883413315 -0.0011129999766126275 0.006380999926477671 0.0137339998036623
          -0.0009640000062063336 0.011757999658584595 0.013079999946057796 -0.0002840000088326633 0.0122079998254776 0.009202999994158745
          0.010816000401973724 0.01319700013846159 -0.017976999282836914 0.011067000217735767 0.008326999843120575 -0.019596999511122704
          0.009371999651193619 0.012608000077307224 -0.009728999808430672 0.00784400012344122 0.010954000055789948 -0.001053999993018806
          0.010820000432431698 0.0010110000148415565 -0.018458999693393707 0.006297000218182802 0.013113000430166721 0.007880999706685543
          0.004377000033855438 -0.007953999564051628 -0.018218999728560448 0.009789999574422836 -0.0007580000092275441 -0.012617000378668308
          0.008875000290572643 -0.006587000098079443 -0.007592999842017889 0.0024900001008063555 -0.006676000077277422 -0.00737700005993247
          0.001319000031799078 -0.004635999910533428 -0.0005959999980404973 0.000019999999494757503 -0.008159000426530838 0.0067159999161958694
          -0.00108299998100847 -0.009116999804973602 0.012990999966859818 -0.0013200000394135714 -0.007122000213712454 0.014415999874472618
          -0.0008789999992586672 -0.0016139999497681856 0.01209999993443489 0.004586999770253897 -0.00216599996201694 0.017111999914050102
          0.004393000155687332 0.005266000051051378 0.018498999997973442 0.00455900002270937 0.013894000090658665 0.01785999909043312
          0.016814999282360077 0.00990500021725893 -0.01611500047147274 0.0173530001193285 0.006289999932050705 -0.01933100074529648
          0.013559999875724316 0.01065600011497736 0.0025430000387132168 0.017450999468564987 -0.0008950000046752393 -0.020161999389529228
          0.011494000442326069 0.012555000372231007 0.014433999545872211 0.00812199991196394 -0.008225999772548676 -0.0033519999124109745
          0.01613599993288517 -0.00710600009188056 -0.012861000373959541 0.006424999795854092 -0.009819000028073788 0.006306999828666449
          0.004807999823242426 -0.016224000602960587 0.015331000089645386 0.0040270001627504826 -0.013425000011920929 0.019897999241948128
          0.003969000186771154 -0.008551999926567078 0.020409999415278435 0.01143100019544363 -0.002193999942392111 0.014248999767005444
          0.011222999542951584 0.0008650000090710819 0.015553999692201614 0.01097899954766035 0.007108999881893396 0.01718199998140335
          0.011171000078320503 0.012550000101327896 0.016280999407172203 0.02274399995803833 0.006111000198870897 -0.01388499978929758
          0.020858999341726303 0.007387999910861254 -0.003043999895453453 0.022406000643968582 0.0071669998578727245 -0.01191100012511015
          0.023483000695705414 -0.002124000107869506 -0.018414000049233437 0.01888200081884861 0.007664999924600124 0.00828499998897314
          0.02341499924659729 -0.006312999874353409 -0.018185999244451523 0.018275000154972076 0.006965000182390213 0.011730000376701355
          0.015589999966323376 -0.010240999981760979 -0.009858000092208385 0.014124000445008278 -0.007267999928444624 -0.0013500000350177288
          0.022779999300837517 -0.00838600005954504 -0.01462399959564209 0.022242000326514244 -0.008646000176668167 -0.011547000147402287
          0.012082000263035297 -0.006680999882519245 0.010351999662816525 0.011013999581336975 -0.007763000205159187 0.016441000625491142
          0.011146999895572662 -0.005011000204831362 0.015775000676512718 0.017952000722289085 -0.004538999870419502 0.013159000314772129
          0.018188999965786934 -0.002471999963745475 0.011876000091433525 0.018252000212669373 0.0031530000269412994 0.011714999563992023
          0.02856599912047386 0.003877999959513545 -0.01097199972718954 0.0263069998472929 0.005710000172257423 0.0020260000601410866
          0.025728000327944756 0.0024510000366717577 0.00521400012075901 0.027208000421524048 -0.004271000158041716 -0.003496000077575445
          0.021712999790906906 -0.0107810003682971 -0.00860000029206276 0.020847000181674957 -0.009610000066459179 -0.003607999999076128
          0.01854100078344345 -0.006527000106871128 0.009704000316560268 0.018139999359846115 -0.007222000043839216 0.011978999711573124
          0.024664999917149544 -0.0010689999908208847 0.01117200031876564 0.028606999665498734 -0.002346999943256378 -0.0023560000117868185
          0.02717299945652485 -0.0009360000258311629 0.005898999981582165
          <InformationKey name="L2_NORM_RANGE" location="vtkDataArray" length="2">
            <Value index="0">
              0.0048566935514
            </Value>
            <Value index="1">
              0.030845420526
            </Value>
          </InformationKey>
        </DataArray>
      </Points>
      <Verts>
        <DataArray type="Int64" Name="connectivity" format="ascii" RangeMin="1e+299" RangeMax="-1e+299">
        </DataArray>
        <DataArray type="Int64" Name="offsets" format="ascii" RangeMin="1e+299" RangeMax="-1e+299">
        </DataArray>
      </Verts>
      <Lines>
        <DataArray type="Int64" Name="connectivity" format="ascii" RangeMin="1e+299" RangeMax="-1e+299">
        </DataArray>
        <DataArray type="Int64" Name="offsets" format="ascii" RangeMin="1e+299" RangeMax="-1e+299">
        </DataArray>
      </Lines>
      <Strips>
        <DataArray type="Int64" Name="connectivity" format="ascii" RangeMin="1e+299" RangeMax="-1e+299">
        </DataArray>
        <DataArray type="Int64" Name="offsets" format="ascii" RangeMin="1e+299" RangeMax="-1e+299">
        </DataArray>
      </Strips>
      <Polys>
        <DataArray type="Int32" Name="connectivity" format="ascii" RangeMin="0" RangeMax="98">
          0 1 2 3 0 2
          4 5 0 5 1 0
          4 0 3 1 6 2
          5 7 1 7 6 1
          6 8 2 8 9 2
          9 10 2 10 3 2
          11 3 10 11 4 3
          12 13 4 13 5 4
          14 4 11 14 12 4
          13 15 5 15 7 5
          7 16 6 16 17 6
          17 8 6 15 16 7
          17 18 8 18 9 8
          18 19 9 19 10 9
          19 20 10 20 11 10
          21 11 20 21 14 11
          22 13 12 23 12 14
          23 22 12 22 24 13
          24 15 13 25 14 21
          25 23 14 15 26 16
          24 27 15 27 28 15
          28 26 15 26 17 16
          26 29 17 29 30 17
          30 18 17 30 31 18
          31 32 18 32 19 18
          32 33 19 33 20 19
          33 34 20 34 21 20
          35 21 34 35 36 21
          36 37 21 37 25 21
          38 39 22 39 24 22
          40 22 23 40 38 22
          41 23 25 41 40 23
          39 42 24 42 27 24
          43 25 37 43 41 25
          28 44 26 44 29 26
          42 45 27 45 46 27
          46 28 27 46 44 28
          44 47 29 47 30 29
          47 48 30 48 31 30
          48 49 31 49 32 31
          49 50 32 50 51 32
          51 52 32 52 33 32
          52 35 33 35 34 33
          53 35 52 53 54 35
          54 36 35 54 55 36
          55 37 36 55 43 37
          56 39 38 56 38 40
          56 57 39 57 42 39
          56 40 41 58 41 43
          58 56 41 57 59 42
          59 45 42 60 43 55
          60 58 43 46 47 44
          59 46 45 46 61 47
          59 62 46 62 61 46
          61 48 47 61 63 48
          63 49 48 63 64 49
          64 50 49 64 65 50
          65 51 50 65 66 51
          66 52 51 66 53 52
          67 53 66 67 68 53
          68 54 53 68 69 54
          69 55 54 69 70 55
          70 60 55 71 57 56
          72 56 58 72 73 56
          73 71 56 71 74 57
          74 59 57 75 58 60
          75 72 58 74 76 59
          76 62 59 77 60 70
          77 75 60 62 78 61
          78 79 61 79 63 61
          76 80 62 80 81 62
          81 78 62 79 82 63
          82 64 63 82 83 64
          83 65 64 83 84 65
          84 66 65 84 67 66
          85 67 84 85 86 67
          86 68 67 86 87 68
          87 69 68 87 77 69
          77 70 69 88 74 71
          88 71 73 89 72 75
          89 73 72 89 88 73
          88 76 74 90 75 77
          90 89 75 88 91 76
          91 80 76 90 77 87
          81 92 78 92 93 78
          93 79 78 93 82 79
          91 81 80 91 92 81
          93 94 82 94 95 82
          95 83 82 95 84 83
          95 85 84 96 85 95
          96 86 85 96 90 86
          90 87 86 97 91 88
          98 88 89 98 97 88
          98 89 90 98 90 96
          91 93 92 91 96 93
          97 96 91 96 94 93
          96 95 94 97 98 96
        </DataArray>
        <DataArray type="Int32" Name="offsets" format="ascii" RangeMin="3" RangeMax="582">
          3 6 9 12 15 18
          21 24 27 30 33 36
          39 42 45 48 51 54
          57 60 63 66 69 72
          75 78 81 84 87 90
          93 96 99 102 105 108
          111 114 117 120 123 126
          129 132 135 138 141 144
          147 150 153 156 159 162
          165 168 171 174 177 180
          183 186 189 192 195 198
          201 204 207 210 213 216
          219 222 225 228 231 234
          237 240 243 246 249 252
          255 258 261 264 267 270
          273 276 279 282 285 288
          291 294 297 300 303 306
          309 312 315 318 321 324
          327 330 333 336 339 342
          345 348 351 354 357 360
          363 366 369 372 375 378
          381 384 387 390 393 396
          399 402 405 408 411 414
          417 420 423 426 429 432
          435 438 441 444 447 450
          453 456 459 462 465 468
          471 474 477 480 483 486
          489 492 495 498 501 504
          507 510 513 516 519 522
          525 528 531 534 537 540
          543 546 549 552 555 558
          561 564 567 570 573 576
          579 582
        </DataArray>
      </Polys>
    </Piece>
  </PolyData>
</VTKFile>
