<?xml version="1.0"?>
<VTKFile type="PolyData" version="0.1" byte_order="LittleEndian" header_type="UInt32" compressor="vtkZLibDataCompressor">
  <PolyData>
    <Piece NumberOfPoints="460" NumberOfVerts="0" NumberOfLines="0" NumberOfStrips="0" NumberOfPolys="916">
      <PointData Normals="Normals">
        <DataArray type="Float32" Name="Normals" NumberOfComponents="3" format="ascii" RangeMin="0.9999993441571625" RangeMax="1.000000675303329">
          -0.07205799967050552 0.06019100174307823 -0.9955829977989197 0.06483499705791473 0.32482901215553284 -0.9435480237007141
          0.05287100002169609 0.6039890050888062 -0.7952370047569275 -0.10601899772882462 -0.0604499988257885 -0.9925249814987183
          -0.08570399880409241 -0.05641600117087364 -0.9947220087051392 0.15873800218105316 -0.0008069999748840928 -0.9873200058937073
          -0.14023099839687347 0.007067000027745962 -0.990094006061554 -0.08650200068950653 0.11175599694252014 -0.9899640083312988
          -0.10394400358200073 0.38253700733184814 -0.9180750250816345 0.3050349950790405 0.5793409943580627 -0.7558550238609314
          0.24342399835586548 0.7825570106506348 -0.5730180144309998 0.2872940003871918 0.9041140079498291 -0.3162899911403656
          -0.08285699784755707 -0.13399100303649902 -0.98751300573349 -0.3064579963684082 0.0697920024394989 -0.949321985244751
          0.21328499913215637 -0.029089000076055527 -0.9765570163726807 0.4762499928474426 0.11161299794912338 -0.8721969723701477
          0.46795299649238586 -0.0019549999851733446 -0.8837509751319885 0.48866400122642517 0.22479599714279175 -0.8430150151252747
          -0.26715999841690063 0.4829680025577545 -0.833886981010437 0.06389299780130386 0.9696919918060303 -0.23582600057125092
          -0.392425000667572 0.00292599992826581 -0.9197790026664734 0.47863098978996277 0.5396299958229065 -0.6926119923591614
          0.4551829993724823 0.6612939834594727 -0.5962370038032532 0.36565300822257996 0.8568779826164246 -0.3633970022201538
          0.28234800696372986 0.8112760186195374 -0.5119680166244507 -0.12918399274349213 0.9728689789772034 -0.19193199276924133
          0.2030230015516281 0.11122900247573853 -0.9728360176086426 0.19083499908447266 -0.08043699711561203 -0.9783210158348083
          -0.41533800959587097 -0.011602000333368778 -0.9095929861068726 -0.47411999106407166 0.08105400204658508 -0.8767210245132446
          -0.6043300032615662 -0.08151800185441971 -0.7925530076026917 -0.5900790095329285 -0.04944000020623207 -0.8058310151100159
          -0.41528400778770447 0.3811109960079193 -0.8260110020637512 -0.17793099582195282 0.4349510073661804 -0.8826990127563477
          -0.5456939935684204 0.23632100224494934 -0.8039720058441162 0.2736639976501465 0.2324099987745285 -0.9333239793777466
          0.5318499803543091 -0.19838200509548187 -0.8232740163803101 0.41931599378585815 0.12272199988365173 -0.8995069861412048
          0.37814098596572876 0.27438101172447205 -0.8841519951820374 0.5623660087585449 0.5727220177650452 -0.5964339971542358
          -0.4301230013370514 0.08088299632072449 -0.8991389870643616 -0.3802050054073334 0.6236159801483154 -0.6830430030822754
          -0.6366549730300903 0.6099910140037537 -0.4717850089073181 0.3648439943790436 0.7309640049934387 0.5766980051994324
          0.25778400897979736 0.9580129981040955 0.12553399801254272 0.41947099566459656 0.8755090236663818 -0.2398499995470047
          0.5802279710769653 0.7614330053329468 -0.28905901312828064 -0.0408100001513958 0.9140130281448364 -0.4036270081996918
          0.0465489998459816 0.9792100191116333 -0.19743800163269043 -0.6557729840278625 0.7291839718818665 0.1955839991569519
          -0.1129859983921051 0.9791889786720276 -0.16859200596809387 -0.4482629895210266 0.8930910229682922 -0.03806300088763237
          0.6091039776802063 0.03554400056600571 -0.7922930121421814 0.46221399307250977 0.19288499653339386 -0.8655359745025635
          -0.500357985496521 0.1341949999332428 -0.855355978012085 -0.5719540119171143 0.12878300249576569 -0.8101130127906799
          -0.6569889783859253 -0.030369000509381294 -0.7532879710197449 -0.5488479733467102 0.10212600231170654 -0.8296610116958618
          -0.5912020206451416 0.12214100360870361 -0.7972220182418823 -0.8041809797286987 -0.06386200338602066 -0.5909439921379089
          -0.6876770257949829 -0.08620300143957138 -0.7208809852600098 -0.46960899233818054 0.14671699702739716 -0.8705989718437195
          -0.5311869978904724 -0.2603110074996948 -0.8062750101089478 -0.29348599910736084 0.17855200171470642 -0.9391409754753113
          -0.57989501953125 0.25706198811531067 -0.7730730175971985 -0.5257819890975952 0.29119399189949036 -0.7992240190505981
          -0.49056199193000793 0.4189760088920593 -0.7640730142593384 0.6581370234489441 0.05927199870347977 -0.7505620121955872
          0.6966789960861206 -0.13266000151634216 -0.7050099968910217 -0.04122199863195419 -0.5545570254325867 -0.8311240077018738
          0.2915860116481781 -0.3240469992160797 -0.8999840021133423 0.4963119924068451 0.141866996884346 -0.856473982334137
          -0.045965999364852905 -0.9539279937744141 -0.2964929938316345 0.751114010810852 -0.3388740122318268 -0.5665609836578369
          0.701653003692627 -0.522038996219635 -0.484932005405426 0.4786289930343628 0.5447419881820679 -0.6886000037193298
          0.618245005607605 0.7095230221748352 -0.3381589949131012 -0.6891260147094727 0.10375799983739853 -0.7171750068664551
          -0.8847050070762634 0.13085900247097015 -0.44740599393844604 -0.9056270122528076 0.4200659990310669 -0.05817899852991104
          0.4722540080547333 0.5519220232963562 0.6872829794883728 0.5130450129508972 0.8528890013694763 -0.09677500277757645
          0.1854960024356842 0.575281023979187 0.7966449856758118 0.49988600611686707 0.6610990166664124 0.5595189929008484
          0.43253999948501587 0.7709479928016663 0.4674910008907318 0.06368999928236008 0.06426899880170822 0.9958980083465576
          0.05081799998879433 0.0987439975142479 0.9938139915466309 -0.039875999093055725 0.2827320098876953 0.9583699703216553
          -0.013759000226855278 0.9997410178184509 -0.018136000260710716 0.15805600583553314 0.7517079710960388 0.6402760148048401
          0.08945699781179428 0.9647579789161682 0.2474679946899414 0.13463999330997467 0.47412601113319397 0.8701009750366211
          0.3294309973716736 0.8736569881439209 -0.3580470085144043 -0.01737700030207634 0.9066519737243652 -0.4215199947357178
          0.4429599940776825 0.8779039978981018 -0.1818539947271347 0.49903300404548645 0.7930200099945068 -0.34940800070762634
          -0.15591199696063995 0.9647700190544128 -0.21192200481891632 0.5864949822425842 0.7491120100021362 -0.30798599123954773
          0.31053200364112854 0.8289790153503418 -0.4651489853858948 0.5873200297355652 0.760420024394989 -0.2771590054035187
          -0.006176999770104885 0.9867389798164368 -0.16219699382781982 0.09875799715518951 0.9081529974937439 0.406823992729187
          -0.422776997089386 0.6879500150680542 0.5899019837379456 -0.4249170124530792 0.8154510259628296 0.39304599165916443
          -0.8501920104026794 0.5201650261878967 0.08125399798154831 -0.8599579930305481 0.4692220091819763 0.2007569968700409
          -0.6656249761581421 0.3005099892616272 0.6831089854240417 -0.4263150095939636 0.490803986787796 0.7598459720611572
          -0.10016299784183502 0.9941220283508301 0.04109499976038933 -0.22956900298595428 0.9097020030021667 0.34603598713874817
          0.7700070142745972 -0.022684000432491302 -0.6376330256462097 -0.7579990029335022 -0.08424100279808044 -0.646793007850647
          -0.6971989870071411 0.2666049897670746 -0.6654589772224426 -0.8153889775276184 0.3362860083580017 -0.47122499346733093
          -0.9484699964523315 0.06932500004768372 -0.3091900050640106 -0.9022079706192017 0.3283109962940216 -0.27970001101493835
          -0.6083409786224365 0.27857500314712524 -0.743179976940155 -0.8771489858627319 -0.14900100231170654 -0.4565179944038391
          -0.5683860182762146 -0.3814440071582794 -0.7289980053901672 -0.518543004989624 -0.48621299862861633 -0.7033560276031494
          -0.48547399044036865 -0.8580840229988098 -0.16735300421714783 -0.64860600233078 -0.5153049826622009 -0.5601530075073242
          -0.5827040076255798 0.41379401087760925 -0.6994510293006897 0.7691730260848999 -0.08507999777793884 -0.6333519816398621
          0.42991599440574646 -0.8789460062980652 -0.20646199584007263 0.8127340078353882 -0.20997899770736694 -0.5434809923171997
          0.7998329997062683 -0.0950549989938736 -0.592648983001709 -0.07723099738359451 0.18494099378585815 -0.9797099828720093
          0.09143099933862686 0.546172022819519 -0.8326680064201355 0.10778900235891342 -0.5168060064315796 -0.8492900133132935
          -0.3271389901638031 -0.7569190263748169 -0.5657320022583008 0.22804999351501465 -0.3694770038127899 -0.9008219838142395
          0.24363499879837036 -0.10413700342178345 -0.9642599821090698 -0.3938089907169342 -0.6631569862365723 -0.6365039944648743
          -0.06798099726438522 -0.8893190026283264 -0.45220598578453064 0.7153369784355164 -0.5187810063362122 -0.4681450128555298
          0.6911290287971497 -0.46002501249313354 -0.5574210286140442 0.8310199975967407 -0.31605100631713867 -0.4577319920063019
          0.7496470212936401 -0.4516749978065491 -0.4837540090084076 0.72120600938797 -0.3226810097694397 -0.612975001335144
          -0.08063600212335587 -0.8102880120277405 -0.5804579854011536 -0.9445030093193054 0.31616899371147156 -0.08917400240898132
          0.1422480046749115 0.8247969746589661 -0.5472429990768433 0.5623390078544617 0.7923769950866699 0.23646000027656555
          0.4039529860019684 0.9043939709663391 -0.13745300471782684 0.5542979836463928 0.7785580158233643 0.294281005859375
          0.4286249876022339 0.7701830267906189 0.4723320007324219 -0.1816210001707077 0.5597829818725586 0.8084909915924072
          0.05122099816799164 0.19413700699806213 0.979636013507843 0.24252399802207947 0.2709529995918274 0.9315400123596191
          -0.10061199963092804 0.4274980127811432 -0.8984000086784363 0.4608460068702698 0.8146839737892151 -0.35200899839401245
          -0.06659799814224243 0.9976130127906799 -0.018247000873088837 0.0361969992518425 0.9535959959030151 -0.29890599846839905
          0.05598499998450279 0.6186850070953369 -0.7836419939994812 0.0982389971613884 0.8155580163002014 -0.5702750086784363
          0.09230200201272964 0.8662689924240112 -0.4909769892692566 -0.10060200095176697 0.9470959901809692 -0.30477601289749146
          -0.07738400250673294 0.9967120289802551 -0.024015000090003014 -0.45728299021720886 0.8869379758834839 -0.0650629997253418
          -0.08703599870204926 0.7898110151290894 -0.6071439981460571 0.2757419943809509 0.8919640183448792 -0.3582819998264313
          0.1079690009355545 0.9421259760856628 -0.3173980116844177 0.023221999406814575 0.8964329957962036 -0.4425710141658783
          0.21601200103759766 0.5524389743804932 0.8050770163536072 0.4518519937992096 0.1494230031967163 0.8794900178909302
          -0.2312529981136322 0.5669320225715637 0.7906389832496643 -0.9056559801101685 0.4129819869995117 0.0960870012640953
          -0.9437699913978577 0.20000000298023224 0.26324498653411865 -0.9115250110626221 0.35496801137924194 0.20765599608421326
          -0.9014310240745544 0.387376993894577 0.19328999519348145 0.0023419999051839113 0.21415899693965912 0.9767959713935852
          0.00834100041538477 0.1438329964876175 0.98956698179245 -0.7486019730567932 0.13323000073432922 0.6494960188865662
          -0.1845719963312149 0.34807801246643066 0.9191160202026367 -0.7914249897003174 0.356795996427536 -0.49632999300956726
          -0.8384069800376892 -0.04090899974107742 -0.5435069799423218 -0.8240919709205627 0.47883298993110657 -0.30263999104499817
          -0.9034169912338257 0.412198007106781 -0.11802499741315842 -0.9383460283279419 0.3430579900741577 -0.042621999979019165
          -0.40067699551582336 -0.9086800217628479 0.117296002805233 -0.3136020004749298 -0.9350100159645081 -0.16556000709533691
          -0.22311200201511383 -0.9589729905128479 0.17490600049495697 -0.07801199704408646 -0.9869970083236694 0.14053699374198914
          -0.1019589975476265 -0.9947869777679443 0.0020039998926222324 0.7084349989891052 -0.7050409913063049 0.03219500184059143
          0.85282301902771 -0.35464900732040405 -0.38329699635505676 0.8403630256652832 -0.09055499732494354 -0.5344070196151733
          -0.1258780062198639 -0.26634401082992554 -0.9556229710578918 -0.20453199744224548 0.10499099642038345 -0.9732130169868469
          0.08015000075101852 -0.38471999764442444 -0.9195470213890076 -0.13533900678157806 -0.4806410074234009 -0.8664100170135498
          -0.8305069804191589 -0.5370209813117981 -0.14787699282169342 -0.7870429754257202 -0.5529249906539917 -0.27356499433517456
          -0.06975200027227402 -0.6052899956703186 -0.792943000793457 -0.2178329974412918 -0.5652580261230469 -0.7956330180168152
          -0.841277003288269 -0.5310289859771729 -0.10129799693822861 0.8241860270500183 -0.46140098571777344 -0.32836800813674927
          0.5632259845733643 -0.7838169932365417 -0.2615489959716797 -0.5199570059776306 -0.6795719861984253 -0.517520010471344
          -0.32150799036026 -0.8183419704437256 -0.47639200091362 -0.8200989961624146 -0.5620599985122681 -0.107355996966362
          -0.8362169861793518 -0.5421800017356873 -0.08234500139951706 0.2672779858112335 0.8602839708328247 -0.43413498997688293
          0.4337800145149231 0.8995199799537659 0.05194700136780739 0.07272999733686447 0.9158719778060913 -0.3948279917240143
          0.5161389708518982 0.7925300002098083 0.3248020112514496 0.47499099373817444 0.7248089909553528 0.49903398752212524
          0.4972130060195923 0.7901300191879272 0.35843199491500854 0.11475899815559387 0.6963520050048828 0.7084670066833496
          -0.34463798999786377 0.23778699338436127 0.9081199765205383 -0.2908309996128082 0.44196799397468567 0.848576009273529
          -0.3789460062980652 0.46447500586509705 0.8004140257835388 -0.39058300852775574 0.5763360261917114 0.7178320288658142
          -0.3147209882736206 0.549983024597168 0.7736080288887024 0.38458800315856934 0.023389000445604324 0.9227920174598694
          0.2530820071697235 0.11809899657964706 0.9602100253105164 -0.020945999771356583 0.39679598808288574 0.9176679849624634
          -0.14950799942016602 0.05270000174641609 0.9873549938201904 0.249098002910614 0.0590829998254776 -0.9666739702224731
          -0.3873319923877716 -0.3056580126285553 -0.8697969913482666 -0.021500999107956886 -0.12310200184583664 -0.992160975933075
          -0.24097800254821777 0.9595080018043518 -0.1458580046892166 -0.15289300680160522 0.9445899724960327 -0.29047200083732605
          -0.16789600253105164 0.9091770052909851 -0.38106200098991394 0.48354700207710266 0.3204219937324524 -0.8145620226860046
          0.07130099833011627 0.914592981338501 -0.3980390131473541 0.4018610119819641 0.6770660281181335 -0.6165140271186829
          0.1695380061864853 0.8998000025749207 -0.4020160138607025 0.040442999452352524 0.9072170257568359 -0.4187139868736267
          0.07868199795484543 0.978659987449646 -0.1898230016231537 0.09466499835252762 0.9870849847793579 -0.12923799455165863
          -0.3909760117530823 0.9003049731254578 -0.1912820041179657 -0.3657500147819519 0.9045370221138 -0.21918000280857086
          0.34901899099349976 0.9097930192947388 0.2246370017528534 -0.06807000190019608 0.9975000023841858 -0.018969999626278877
          0.26043498516082764 0.930180013179779 0.25872498750686646 0.1253889948129654 0.986175000667572 0.10833600163459778
          0.1739950031042099 0.9536659717559814 0.24545200169086456 -0.4339439868927002 0.8653740286827087 -0.2506389915943146
          -0.36620599031448364 0.8969339728355408 -0.24779699742794037 -0.12833599746227264 0.8489969968795776 -0.5125759840011597
          0.20509399473667145 0.2473829984664917 0.9469630122184753 0.4867109954357147 0.20595599710941315 0.8489369750022888
          0.401885986328125 -0.06211800128221512 0.9135800004005432 0.02022700011730194 0.18240299820899963 0.9830160140991211
          -0.9203680157661438 0.3784579932689667 0.09844700247049332 -0.9440109729766846 0.3152729868888855 0.09719499945640564
          -0.950098991394043 0.2848629951477051 0.127142995595932 -0.8779399991035461 -0.2946940064430237 0.3773289918899536
          -0.5703449845314026 -0.8197299838066101 -0.05243099853396416 -0.6776260137557983 -0.7340369820594788 0.04486300051212311
          -0.9637609720230103 0.21527700126171112 0.1575459986925125 0.4011569917201996 0.1445380002260208 0.9045339822769165
          0.20070500671863556 -0.2368209958076477 0.9505959749221802 -0.35673001408576965 -0.22119499742984772 0.9076430201530457
          0.2391359955072403 0.40500500798225403 0.8824880123138428 0.15397599339485168 0.47062501311302185 0.8687940239906311
          0.0902009978890419 0.2041569948196411 0.9747740030288696 -0.8626229763031006 0.37274399399757385 -0.3419699966907501
          -0.9757980108261108 -0.061462000012397766 -0.2098589986562729 -0.341715008020401 -0.9369339942932129 0.07337900251150131
          -0.5488079786300659 -0.8356360197067261 -0.02286200039088726 -0.10637400299310684 -0.9883729815483093 0.10864300280809402
          -0.5382969975471497 -0.8256850242614746 -0.16876399517059326 0.2318899929523468 -0.8900390267372131 0.3925020098686218
          -0.33133599162101746 -0.9193549752235413 -0.21213600039482117 0.3528729975223541 -0.7682039737701416 0.5341749787330627
          -0.41402700543403625 -0.19740599393844604 -0.8886020183563232 -0.5644840002059937 -0.4784260094165802 -0.6726559996604919
          -0.6562520265579224 -0.48950400948524475 -0.5742120146751404 -0.3368529975414276 -0.8599029779434204 -0.38353198766708374
          -0.1755400002002716 -0.4979180097579956 -0.8492720127105713 -0.2887749969959259 -0.9572370052337646 -0.01752300001680851
          -0.6749780178070068 -0.6870049834251404 -0.2691270112991333 -0.49254098534584045 -0.6626870036125183 -0.5641350150108337
          -0.5579490065574646 -0.7681980133056641 -0.31394898891448975 -0.5020660161972046 -0.7657549977302551 -0.4019309878349304
          -0.5113639831542969 -0.7289779782295227 -0.4550809860229492 -0.8874229788780212 -0.4468739926815033 0.1130639985203743
          -0.9216089844703674 -0.3568060100078583 0.15273399651050568 0.38700398802757263 0.8235120177268982 0.41479599475860596
          0.35692599415779114 0.9340860247612 -0.009355000220239162 0.09097299724817276 0.982912003993988 -0.1600240021944046
          -0.1696690022945404 0.9324280023574829 -0.3190459907054901 -0.10400299727916718 0.8893880248069763 -0.44516700506210327
          0.5107759833335876 0.6124140024185181 0.6033710241317749 -0.221329003572464 0.5318329930305481 0.8174149990081787
          0.17093199491500854 0.5092859864234924 0.843451976776123 -0.42255899310112 -0.0981149971485138 0.9010090231895447
          -0.24803400039672852 0.5653150081634521 0.7867010235786438 -0.45191800594329834 0.14115400612354279 0.8808209896087646
          -0.4600520133972168 0.13950400054454803 0.8768640160560608 -0.35238999128341675 -0.15375199913978577 0.9231370091438293
          -0.06087600067257881 0.12760299444198608 0.9899550080299377 -0.09890100359916687 -0.08864700049161911 0.9911410212516785
          -0.3776929974555969 0.3004339933395386 0.8758350014686584 -0.37635600566864014 0.11044599860906601 0.919867992401123
          -0.3071019947528839 -0.15043599903583527 0.9397109746932983 0.2091600000858307 -0.09398899972438812 0.9733539819717407
          -0.41579800844192505 -0.5669100284576416 0.711143970489502 0.44698700308799744 -0.04025200009346008 -0.893634021282196
          0.22036799788475037 -0.1572510004043579 -0.9626579880714417 -0.2215079963207245 0.920753002166748 -0.3211669921875
          -0.2759000062942505 0.9314789772033691 -0.23711800575256348 0.6269850134849548 -0.14092400670051575 -0.7661790251731873
          0.7638739943504333 0.0389150008559227 -0.6441919803619385 0.7129380106925964 0.04399999976158142 -0.699845016002655
          0.6642969846725464 0.5787169933319092 -0.47307100892066956 0.8248220086097717 0.18316200375556946 -0.5349029898643494
          0.54134202003479 0.789447009563446 -0.2893489897251129 0.4848040044307709 0.8670079708099365 0.1151600033044815
          0.4058479964733124 0.8838080167770386 0.23274600505828857 0.21551600098609924 0.9647079706192017 0.1513029932975769
          0.32929500937461853 0.9141749739646912 0.23632299900054932 0.3077999949455261 0.8798059821128845 0.3622159957885742
          0.15438799560070038 0.9501670002937317 0.2708280086517334 -0.16086800396442413 -0.9490159749984741 0.27108898758888245
          -0.04001900181174278 -0.9943320155143738 -0.09849800169467926 0.46242499351501465 0.2950359880924225 0.8361319899559021
          0.4935779869556427 0.39171698689460754 0.7764919996261597 0.2715120017528534 -0.5673199892044067 0.7774500250816345
          0.18904200196266174 -0.5025519728660583 0.8436260223388672 0.4006679952144623 -0.6465939879417419 0.6491379737854004
          0.3133910000324249 0.438059002161026 0.8425499796867371 0.40979599952697754 0.6065880060195923 0.6812620162963867
          0.021880000829696655 0.5586349964141846 0.8291249871253967 0.036518000066280365 0.08488500118255615 0.9957209825515747
          -0.18761000037193298 -0.9821550250053406 0.013224000111222267 0.45433399081230164 -0.489452987909317 0.7443230152130127
          0.05046499893069267 -0.7670400142669678 0.639611005783081 -0.07349199801683426 -0.7080609798431396 0.7023159861564636
          -0.19104400277137756 -0.8135169744491577 0.54926598072052 0.8238670229911804 -0.38688400387763977 -0.4142040014266968
          0.3623659908771515 -0.6008849740028381 -0.7124800086021423 -0.8477180004119873 -0.5175319910049438 0.11633999645709991
          -0.6073449850082397 -0.7533940076828003 -0.2520509958267212 0.16239899396896362 -0.9522110223770142 -0.2586899995803833
          0.3776380121707916 -0.28672298789024353 -0.8804420232772827 -0.3713339865207672 -0.8338850140571594 0.4083459973335266
          -0.3791790008544922 -0.9095029830932617 0.1703750044107437 -0.4322580099105835 -0.8896719813346863 -0.14709199965000153
          -0.41635599732398987 -0.8562269806861877 0.30581599473953247 -0.4794439971446991 -0.860912024974823 -0.17018699645996094
          -0.6778560280799866 -0.7309309840202332 -0.07906399667263031 -0.46294400095939636 -0.8044229745864868 -0.37227100133895874
          -0.36108899116516113 -0.8229039907455444 -0.43868300318717957 -0.5378599762916565 -0.7980700135231018 -0.27164599299430847
          0.525180995464325 0.6570889949798584 0.5407590270042419 0.10862699896097183 0.8484140038490295 0.5180670022964478
          0.41554200649261475 0.5173810124397278 0.748091995716095 0.4566720128059387 0.6103010177612305 0.647288978099823
          0.37810999155044556 0.49386098980903625 0.7830290198326111 0.6012449860572815 0.43980899453163147 0.6671370267868042
          0.626803994178772 0.4631029963493347 0.6266199946403503 0.4070889949798584 0.2114969938993454 0.8885650038719177
          -0.14386999607086182 0.3728939890861511 0.9166520237922668 -0.3428010046482086 0.215489000082016 0.9143589735031128
          -0.41130900382995605 -0.2149759978055954 0.88578200340271 -0.40969499945640564 -0.41787201166152954 0.8108839988708496
          -0.3776249885559082 -0.3612689971923828 0.8525750041007996 0.19685399532318115 0.16965200006961823 0.9656429886817932
          -0.23960399627685547 -0.11705999821424484 0.9637879729270935 0.0036869999021291733 0.02970699965953827 0.9995520114898682
          0.178725004196167 -0.24102699756622314 0.9539200067520142 -0.018634000793099403 -0.3377409875392914 0.9410549998283386
          0.20270200073719025 0.14961600303649902 0.9677429795265198 -0.31116199493408203 -0.4223800003528595 0.8513360023498535
          -0.21373499929904938 -0.44773998856544495 0.8682429790496826 -0.12511399388313293 -0.16553300619125366 0.9782360196113586
          0.412651002407074 0.18970100581645966 0.8909170031547546 0.7504270076751709 -0.12299499660730362 -0.6494089961051941
          0.8500139713287354 -0.05765699967741966 -0.5235949754714966 0.9011179804801941 0.2792069911956787 -0.33170801401138306
          0.882623016834259 0.2549310028553009 -0.3949519991874695 0.9378659725189209 -0.04719899967312813 -0.3437719941139221
          0.9466270208358765 0.07202199846506119 -0.31418299674987793 0.9046630263328552 0.2970069944858551 -0.3055669963359833
          0.8632150292396545 0.4680260121822357 -0.1892399936914444 0.39664000272750854 0.8603649735450745 0.32007598876953125
          0.7132520079612732 0.6494920253753662 0.263498991727829 0.9844080209732056 0.1632000058889389 -0.06562700122594833
          0.48417800664901733 0.6734570264816284 0.5585939884185791 0.6835730075836182 0.5953590273857117 0.42222800850868225
          0.5769969820976257 0.7562190294265747 0.308555006980896 0.5675370097160339 0.2330700010061264 0.789671003818512
          0.436491996049881 0.5912870168685913 0.6781250238418579 0.4985460042953491 0.2899009883403778 0.8169509768486023
          0.3057529926300049 -0.7079970240592957 0.6365969777107239 0.22108499705791473 -0.4293319880962372 0.8756679892539978
          0.2753719985485077 -0.7358989715576172 0.6185659766197205 0.5217440128326416 0.5494120121002197 0.6526319980621338
          0.6445990204811096 0.2645910084247589 0.7172750234603882 0.11718899756669998 0.5154970288276672 0.8488399982452393
          0.2950020134449005 0.3474839925765991 0.8900719881057739 -0.004176999907940626 0.37908101081848145 0.92535400390625
          0.2227039933204651 0.04213400185108185 0.9739750027656555 -0.10149700194597244 -0.24065400660037994 0.9652900099754333
          0.12467599660158157 -0.4736419916152954 0.8718479871749878 -0.22247299551963806 -0.4415709972381592 0.8692070245742798
          -0.22272099554538727 -0.7569730281829834 0.6143190264701843 0.29621100425720215 -0.4570930004119873 0.8386449813842773
          0.38997000455856323 -0.5248370170593262 0.7566180229187012 0.2556059956550598 -0.59893399477005 0.7589089870452881
          -0.05584400147199631 -0.8088719844818115 0.5853270292282104 -0.121397003531456 -0.8677570223808289 0.4819340109825134
          -0.2223919928073883 -0.7852609753608704 0.5778470039367676 0.9490730166435242 0.015874000266194344 0.31465598940849304
          0.7936869859695435 -0.6048700213432312 -0.06474599987268448 -0.4430620074272156 -0.8197230100631714 -0.36297300457954407
          0.09492000192403793 -0.9861260056495667 0.13618099689483643 0.5146870017051697 -0.8483250141143799 0.124269999563694
          -0.16848300397396088 -0.9823169708251953 0.08164799958467484 -0.385670006275177 -0.7838940024375916 0.4865899980068207
          -0.3329179883003235 -0.829138994216919 0.4491029977798462 -0.26864099502563477 -0.9160199761390686 0.2978900074958801
          -0.36394599080085754 -0.9308559894561768 0.032423000782728195 -0.40456101298332214 -0.9143850207328796 0.01520800031721592
          -0.541595995426178 -0.8233399987220764 -0.1696619987487793 0.4553300142288208 -0.2154330015182495 0.8638650178909302
          0.7362710237503052 0.4157949984073639 0.5338720083236694 -0.1803389936685562 0.06624499708414078 0.9813709855079651
          0.511713981628418 0.14641200006008148 0.8465890288352966 -0.011912999674677849 0.6256549954414368 0.7800089716911316
          0.0448869988322258 0.565310001373291 0.8236569762229919 0.2989949882030487 0.42054399847984314 0.8565890192985535
          -0.31780698895454407 0.21340200304985046 0.9238280057907104 -0.23362700641155243 0.033142998814582825 0.9717609882354736
          -0.2702620029449463 -0.2064789980649948 0.9403849840164185 0.20638799667358398 0.07901500165462494 0.9752749800682068
          -0.24594299495220184 -0.020610999315977097 0.9690650105476379 0.063571996986866 0.24800899624824524 0.9666699767112732
          0.8961970210075378 0.40251898765563965 0.18657100200653076 0.743012011051178 0.6059499979019165 0.28418099880218506
          0.8308809995651245 0.42897799611091614 0.3544209897518158 0.18998999893665314 0.20642399787902832 0.9598399996757507
          0.46152201294898987 -0.28648999333381653 0.8395959734916687 0.4237329959869385 0.006593000143766403 0.9057629704475403
          0.35932299494743347 -0.11514600366353989 0.9260820150375366 -0.4383780062198639 -0.025210000574588776 0.8984370231628418
          -0.3691590130329132 -0.6125850081443787 0.6988999843597412 -0.3630090057849884 -0.774308979511261 0.5183330178260803
          0.331138014793396 -0.2550640106201172 0.9084550142288208 0.6139900088310242 -0.027278000488877296 0.7888420224189758
          0.022505000233650208 0.114935003221035 0.9931179881095886 0.6335009932518005 -0.46232300996780396 0.6204299926757812
          0.7871630191802979 -0.531728982925415 0.3124710023403168 0.2329780012369156 -0.8593090176582336 0.45531201362609863
          -0.12663599848747253 -0.958549976348877 0.2552359998226166 -0.21373499929904938 -0.9603229761123657 0.17915600538253784
          -0.3634920120239258 -0.781482994556427 0.5071070194244385 -0.048548001796007156 -0.7408499717712402 0.6699129939079285
          -0.15338300168514252 -0.8828279972076416 0.4439469873905182 -0.20013999938964844 -0.9192349910736084 0.3390440046787262
          -0.3546290099620819 -0.17483900487422943 0.9185150265693665 -0.4455690085887909 0.38933300971984863 0.8061569929122925
          -0.24357299506664276 -0.5895630121231079 0.7701219916343689 -0.38622498512268066 -0.4419170022010803 0.8096539974212646
          -0.33005499839782715 -0.6185510158538818 0.7130630016326904 -0.063400998711586 -0.9149730205535889 0.39850300550460815