<?xml version="1.0"?>
<VTKFile type="PolyData" version="0.1" byte_order="LittleEndian" header_type="UInt32" compressor="vtkZLibDataCompressor">
  <PolyData>
    <Piece NumberOfPoints="146" NumberOfVerts="0" NumberOfLines="0" NumberOfStrips="0" NumberOfPolys="288">
      <PointData Normals="Normals">
        <DataArray type="Float32" Name="Normals" NumberOfComponents="3" format="ascii" RangeMin="0.999999304413018" RangeMax="1.0000006308711502">
          0.6054440140724182 0.5305089950561523 0.5932940244674683 -0.23796500265598297 0.9010040163993835 0.36271798610687256
          0.16072599589824677 0.6423689723014832 0.7493529915809631 0.6484519839286804 0.3725050091743469 0.66389000415802
          0.5720959901809692 0.7789279818534851 0.25686201453208923 -0.25054800510406494 0.7973499894142151 0.5490520000457764
          0.11128400266170502 0.7083020210266113 -0.697081983089447 -0.1830819994211197 0.8845289945602417 0.42905598878860474
          0.33464300632476807 0.921159029006958 -0.19869600236415863 -0.203233003616333 0.6321070194244385 0.7477539777755737
          0.6806399822235107 -0.03471300005912781 0.7317950129508972 0.827239990234375 -0.027972999960184097 0.5611519813537598
          0.9312530159950256 -0.18945500254631042 0.31124600768089294 0.961778998374939 -0.12731300294399261 0.2424290031194687
          0.5747169852256775 0.7397800087928772 -0.3498939871788025 0.9775210022926331 -0.15030500292778015 0.14785200357437134
          0.9949970245361328 0.08277300000190735 -0.05593699961900711 -0.17189499735832214 0.7622259855270386 0.6240710020065308
          0.24095599353313446 0.3120749890804291 -0.9189940094947815 0.35839900374412537 0.32977598905563354 -0.8733829855918884
          0.9005020260810852 -0.22921499609947205 -0.36953499913215637 0.5253729820251465 0.06947100162506104 -0.8480309844017029
          0.008275000378489494 0.8611479997634888 0.5082870125770569 0.26722899079322815 0.9388830065727234 0.2169950008392334
          0.6075130105018616 0.7572669982910156 -0.23973700404167175 0.7750059962272644 0.49438801407814026 -0.3936319947242737
          0.6651939749717712 0.26730599999427795 -0.6971830129623413 -0.3944750130176544 0.07275000214576721 0.916022002696991
          -0.3199149966239929 -0.09888599812984467 0.9422720074653625 0.5893740057945251 -0.27345800399780273 0.7601699829101562
          0.7496870160102844 -0.4455240070819855 0.48936399817466736 0.8154670000076294 -0.4598590135574341 0.3514859974384308
          0.788025975227356 0.18699400126934052 -0.5865560173988342 -0.10571300238370895 0.8631500005722046 0.49375900626182556
          0.0024770000018179417 0.8008109927177429 0.5989130139350891 0.7102910280227661 -0.48185300827026367 0.5131319761276245
          0.8115869760513306 -0.568913996219635 0.13290399312973022 0.544098973274231 0.07106699794530869 -0.8360059857368469
          0.8547930121421814 -0.5189399719238281 -0.005456000100821257 0.854170024394989 -0.3904550075531006 -0.3434230089187622
          0.26303601264953613 -0.11783400177955627 -0.9575629830360413 0.48506999015808105 -0.17576299607753754 -0.8566300272941589
          0.29660698771476746 0.18372100591659546 -0.9371610283851624 0.33431801199913025 0.18555699288845062 -0.9240130186080933
          0.5513049960136414 -0.02536899968981743 -0.8339179754257202 0.6495770215988159 0.021189000457525253 -0.760001003742218
          0.7936210036277771 0.3764820098876953 -0.47793999314308167 0.13206900656223297 0.9633070230484009 -0.2336609959602356
          0.5574489831924438 0.8122230172157288 -0.17188499867916107 0.5334089994430542 0.7253789901733398 -0.4350860118865967
          -0.4088810086250305 -0.3849389851093292 0.8274289965629578 -0.41343799233436584 -0.3973439931869507 0.8192600011825562
          -0.5665349960327148 -0.0008290000259876251 0.824038028717041 -0.38349199295043945 -0.44323599338531494 0.8102319836616516
          -0.537319004535675 -0.5659030079841614 0.6253340244293213 -0.6450809836387634 -0.386150985956192 0.6593610048294067
          0.11739800125360489 -0.5683680176734924 0.8143560290336609 0.33612099289894104 -0.6100990176200867 0.7174969911575317
          0.6594640016555786 -0.5135179758071899 0.5490049719810486 0.5959680080413818 -0.5554580092430115 0.5799040198326111
          -0.7773820161819458 0.15448400378227234 0.6097639799118042 -0.4266510009765625 0.8767690062522888 0.22191299498081207
          -0.367792010307312 0.9027680158615112 -0.223021000623703 0.7189459800720215 -0.6006330251693726 0.34979501366615295
          0.7714830040931702 -0.5911779999732971 0.23520700633525848 -0.05894099920988083 -0.579708993434906 0.8126890063285828
          0.15936100482940674 -0.629056990146637 0.7608489990234375 0.5435069799423218 -0.6483960151672363 0.5330889821052551
          0.77218097448349 -0.6329460144042969 -0.05581900104880333 0.6470580101013184 -0.7614380121231079 -0.039094001054763794
          0.5825899839401245 -0.8110650181770325 0.052560001611709595 0.7199530005455017 -0.5962309837341309 -0.35521399974823
          0.3291659951210022 -0.2515900135040283 -0.9101390242576599 0.31936800479888916 0.06143200024962425 -0.9456380009651184
          0.11872400343418121 -0.27398398518562317 -0.9543780088424683 -0.11767800152301788 -0.676190972328186 -0.7272670269012451
          0.10919699817895889 -0.4344539940357208 -0.8940500020980835 0.2775470018386841 -0.3881419897079468 -0.8788139820098877
          0.026534000411629677 -0.7437180280685425 -0.6679670214653015 0.4969500005245209 -0.15702299773693085 -0.8534550070762634
          -0.09843199700117111 0.03411500155925751 -0.9945589900016785 0.036076001822948456 -0.2034579962491989 -0.9784190058708191
          0.46563100814819336 0.1037990003824234 -0.8788710236549377 0.6864079833030701 0.5652779936790466 -0.4574989974498749
          0.30525699257850647 0.37819600105285645 -0.8739479780197144 -0.1587419956922531 0.452551007270813 -0.8774960041046143
          -0.34688600897789 -0.5444239974021912 0.7637230157852173 -0.6584709882736206 -0.5320050120353699 0.5323410034179688
          -0.6006029844284058 -0.5163149833679199 0.6104879975318909 -0.6888710260391235 -0.5045760273933411 0.5204409956932068
          -0.5299249887466431 -0.6940379738807678 0.48732998967170715 -0.3018749952316284 -0.9487900137901306 -0.09310600161552429
          -0.6379770040512085 -0.30022498965263367 0.7091190218925476 -0.39148199558258057 -0.9201319813728333 -0.009956000372767448
          -0.9893239736557007 0.13023099303245544 -0.06540299952030182 -0.8098949790000916 -0.4191269874572754 0.41036900877952576
          -0.8868770003318787 -0.36907801032066345 0.2779029905796051 -0.5929099917411804 0.7833719849586487 -0.18651099503040314
          -0.7641729712486267 0.4872620105743408 -0.4226289987564087 -0.5074650049209595 0.8274180293083191 -0.24053899943828583
          -0.5546680092811584 0.46479499340057373 -0.6901509761810303 -0.43884798884391785 0.17477700114250183 -0.8813999891281128
          0.4688439965248108 -0.7601670026779175 0.44981300830841064 0.6143230199813843 -0.7255100011825562 0.3102310001850128
          0.5859959721565247 -0.7991139888763428 0.13426299393177032 -0.07695599645376205 -0.8605390191078186 0.5035380125045776
          -0.7062659859657288 -0.3383049964904785 0.621882975101471 0.2353000044822693 -0.9414790272712708 -0.24135200679302216
          0.41760000586509705 -0.9041969776153564 0.08966100215911865 -0.2396250069141388 -0.8800209760665894 -0.410053014755249
          -0.2457139939069748 -0.822147011756897 -0.5135170221328735 0.007201000116765499 -0.6499770283699036 -0.7599200010299683
          -0.08186300098896027 -0.8493829965591431 -0.5213890075683594 -0.1735839992761612 -0.8752260208129883 -0.4514949917793274
          -0.17718200385570526 -0.7259770035743713 -0.6645029783248901 -0.2792400121688843 -0.11869800090789795 -0.9528570175170898
          0.21984300017356873 -0.2289160043001175 -0.9482970237731934 -0.6155009865760803 0.28345298767089844 -0.7353990077972412
          -0.5034840106964111 0.09014400094747543 -0.8592889904975891 -0.4724949896335602 0.006566999945789576 -0.8813089728355408
          -0.8270260095596313 -0.49643200635910034 0.26378700137138367 -0.8555880188941956 -0.47310298681259155 0.21010200679302216
          -0.7174580097198486 -0.5143280029296875 -0.46980899572372437 -0.9602710008621216 -0.17173099517822266 -0.21997100114822388
          -0.6377609968185425 -0.6489790081977844 0.4148330092430115 -0.8406069874763489 -0.3009069859981537 0.45037201046943665
          -0.39366599917411804 -0.9149190187454224 0.08916399627923965 -0.8301929831504822 -0.5247949957847595 0.18806800246238708
          -0.9571790099143982 -0.10249099880456924 -0.27074798941612244 -0.7027130126953125 0.14338800311088562 -0.6968740224838257
          -0.737093985080719 0.007992999628186226 -0.6757429838180542 -0.8851950168609619 -0.44773998856544495 0.12633000314235687
          -0.6157680153846741 0.38315701484680176 -0.6884909868240356 -0.5469509959220886 0.03381500020623207 -0.836480975151062
          -0.3856230080127716 -0.905023992061615 0.17951700091362 0.13069500029087067 -0.9897000193595886 0.05842199921607971
          -0.828711986541748 -0.3716360032558441 0.41847699880599976 -0.19312599301338196 -0.8882439732551575 -0.4168039858341217
          -0.5607730150222778 -0.8219919800758362 -0.099310003221035 -0.6520529985427856 -0.7551469802856445 0.06767299771308899
          -0.556518018245697 -0.8295620083808899 0.04598399996757507 -0.2786340117454529 -0.2819789946079254 -0.9180690050125122
          -0.8676040172576904 -0.13122999668121338 -0.47962701320648193 -0.7951920032501221 -0.20465900003910065 -0.5707740187644958
          -0.49799299240112305 -0.05682000145316124 -0.8653169870376587 -0.8991739749908447 -0.3472859859466553 -0.2662290036678314
          <InformationKey name="L2_NORM_RANGE" location="vtkDataArray" length="2">
            <Value index="0">
              0.99999930441
            </Value>
            <Value index="1">
              1.0000006309
            </Value>
          </InformationKey>
        </DataArray>
      </PointData>
      <CellData>
      </CellData>
      <Points>
        <DataArray type="Float32" Name="Points" NumberOfComponents="3" format="ascii" RangeMin="0.08082741668655813" RangeMax="0.10321246142146334">
          0.09788099676370621 0.028891000896692276 0.004987000022083521 0.09624800086021423 0.028286000713706017 0.0051750000566244125
          0.09669899940490723 0.026870999485254288 0.00747800013050437 0.09740699827671051 0.027728000655770302 0.006364999804645777
          0.09869199991226196 0.02980400063097477 0.0028379999566823244 0.0956140011548996 0.02718699909746647 0.006630000192672014
          0.09677299857139587 0.02943499945104122 -0.0006900000153109431 0.09514600038528442 0.02818099968135357 0.004652999807149172
          0.09372500330209732 0.02972700074315071 -0.0011109999613836408 0.09583000093698502 0.025887999683618546 0.008275999687612057
          0.09585999697446823 0.025359999388456345 0.008496000431478024 0.09673099964857101 0.026298999786376953 0.007675999775528908
          0.0981760025024414 0.027915000915527344 0.005055000074207783 0.09865199774503708 0.028429999947547913 0.003548000007867813
          0.09869100153446198 0.03002000041306019 0.0008200000156648457 0.0990459993481636 0.02885499969124794 0.002050000010058284
          0.09906399995088577 0.02895200066268444 0.0009580000187270343 0.08957300335168839 0.028362000361084938 0.0022090000566095114
          0.09519600123167038 0.029299000278115273 -0.0010979999788105488 0.09790199995040894 0.02922699972987175 -0.00035700001171790063
          0.09539800137281418 0.01727600023150444 -0.00072900002123788 0.08977700024843216 0.01982799917459488 -0.002824000082910061
          0.09036800265312195 0.02932400070130825 0.0012809999752789736 0.09067799896001816 0.030810000374913216 -0.0015450000064447522
          0.09258399903774261 0.029903000220656395 -0.0028250000905245543 0.09316500276327133 0.029570000246167183 -0.002199999988079071
          0.09368900209665298 0.029131999239325523 -0.001601999974809587 0.08597999811172485 0.02403300069272518 0.006448000203818083
          0.09324199706315994 0.02180200070142746 0.009158999659121037 0.09498000144958496 0.024372000247240067 0.009192000143229961
          0.09468299895524979 0.023090999573469162 0.008520999923348427 0.09433499723672867 0.02163200080394745 0.007675000000745058
          0.09889700263738632 0.029023999348282814 0.00002099999983329326 0.08499900251626968 0.031631000339984894 -0.0016929999692365527
          0.08850599825382233 0.029776999726891518 0.0006290000164881349 0.09401299804449081 0.01998399943113327 0.006657000165432692
          0.09376200288534164 0.014090999960899353 -0.00007200000254670158 0.09373699873685837 0.015282000415027142 -0.002638000063598156
          0.09424199908971786 0.014751000329852104 -0.0010779999429360032 0.09427999705076218 0.014968999661505222 -0.0022219999227672815
          0.0904180034995079 0.01574300043284893 -0.0037950000260025263 0.08928199857473373 0.016922999173402786 -0.004246999975293875
          0.0931439995765686 0.015514000318944454 -0.002788000041618943 0.09231600165367126 0.01582000032067299 -0.0029800001066178083
          0.08782800287008286 0.020684000104665756 -0.005243000108748674 0.09093599766492844 0.030003000050783157 -0.0052640000358223915
          0.09267199784517288 0.02958899922668934 -0.0033289999701082706 0.08574000000953674 0.03293599933385849 -0.0065379999577999115
          0.09111600369215012 0.030722999945282936 -0.0041229999624192715 0.08923400193452835 0.03143399953842163 -0.006182999815791845
          0.08855699747800827 0.02181199938058853 0.006907999981194735 0.09130199998617172 0.021031999960541725 0.007829000242054462
          0.08229000121355057 0.026311000809073448 0.004569000098854303 0.09231500327587128 0.020910000428557396 0.008330999873578548
          0.08564499765634537 0.02177100069820881 0.0053079999051988125 0.08399400115013123 0.022756999358534813 0.004339999984949827
          0.09311699867248535 0.02112000063061714 0.008754000067710876 0.092958003282547 0.020301999524235725 0.008165000006556511
          0.09365200251340866 0.020952999591827393 0.00798300001770258 0.09343399852514267 0.019627999514341354 0.006825000047683716
          0.07699599862098694 0.02723800018429756 0.00026699999580159783 0.08055199682712555 0.0310479998588562 -0.003834000090137124
          0.08412499725818634 0.03248399868607521 -0.006500000134110451 0.09290099889039993 0.01394800003618002 0.0023789999540895224
          0.09307300299406052 0.013722999952733517 0.0015160000184550881 0.09118200093507767 0.013372999615967274 0.0032850001007318497
          0.09256599843502045 0.01779399998486042 0.0058280001394450665 0.09240200370550156 0.01371499989181757 0.00291600008495152
          0.09387599676847458 0.014294000342488289 -0.0012619999470189214 0.09343799948692322 0.01375299971550703 -0.00027799999224953353
          0.09312000125646591 0.013546000234782696 0.0004450000124052167 0.09395299851894379 0.01448300015181303 -0.0023070001043379307
          0.09313300251960754 0.014096999540925026 -0.002985999919474125 0.09196499735116959 0.015244999900460243 -0.0032130000181496143
          0.0916069969534874 0.014770000241696835 -0.003298999974504113 0.09020499885082245 0.014042999595403671 -0.0028150000143796206
          0.08961799740791321 0.015429999679327011 -0.0036720000207424164 0.08853299915790558 0.016188999637961388 -0.0042489999905228615
          0.08444499969482422 0.017457999289035797 -0.006502999924123287 0.08782599866390228 0.018038000911474228 -0.005799999926239252
          0.08404699712991714 0.027608999982476234 -0.006422999780625105 0.08577500283718109 0.028439000248908997 -0.006887999828904867
          0.08900900185108185 0.030981000512838364 -0.006690999958664179 0.09112299978733063 0.03045699931681156 -0.004747000057250261
          0.08707399666309357 0.03170299902558327 -0.007207999937236309 0.08524899929761887 0.032283999025821686 -0.007447999902069569
          0.09216900169849396 0.020121999084949493 0.007757000159472227 0.08272799849510193 0.022290999069809914 0.0024170000106096268
          0.08010400086641312 0.023486999794840813 0.001025000005029142 0.08715199679136276 0.015607999637722969 -0.001243000035174191
          0.08588799834251404 0.015633000060915947 -0.0025790000800043344 0.08470100164413452 0.015704000368714333 -0.00369199994020164
          0.09054400026798248 0.015703000128269196 0.003103999886661768 0.08184300363063812 0.016693999990820885 -0.004863000009208918
          0.07631800323724747 0.027135999873280525 -0.0010400000028312206 0.07798600196838379 0.024330999702215195 -0.0004180000105407089
          0.07776100188493729 0.024406999349594116 -0.0013749999925494194 0.08017300069332123 0.030834000557661057 -0.004317000042647123
          0.07754500210285187 0.028881000354886055 -0.003131000092253089 0.08144400268793106 0.03150000050663948 -0.005053000058978796
          0.08250000327825546 0.03169900178909302 -0.006047999951988459 0.08385500311851501 0.032047998160123825 -0.006785999983549118
          0.091669000685215 0.01308399997651577 0.0026519999373704195 0.09267599880695343 0.013505999930202961 0.0019809999503195286
          0.09278000146150589 0.01335499994456768 0.0011749999830499291 0.0910160019993782 0.012586000375449657 0.002314999932423234
          0.08983399718999863 0.013822999782860279 0.002491000108420849 0.09203899651765823 0.012981999665498734 -0.0016509999986737967
          0.09148699790239334 0.012741000391542912 0.0022070000413805246 0.08838199824094772 0.014426999725401402 -0.00228899996727705
          0.0886949971318245 0.014608999714255333 -0.0027020000852644444 0.08916199952363968 0.014879999682307243 -0.0034030000679194927
          0.08380100131034851 0.016256000846624374 -0.0044570001773536205 0.08731500059366226 0.015003999695181847 -0.0028639999218285084
          0.08101700246334076 0.017361000180244446 -0.006337999831885099 0.08241099864244461 0.019456999376416206 -0.007841000333428383
          0.08362899720668793 0.019026000052690506 -0.007627000100910664 0.07744999974966049 0.02545499987900257 -0.003713000100106001
          0.07965900003910065 0.027960000559687614 -0.0045380000956356525 0.07979899644851685 0.029252000153064728 -0.004567999858409166
          0.077844999730587 0.02321299910545349 -0.0021520000882446766 0.07895199954509735 0.02092299982905388 -0.004925999790430069
          0.07945899665355682 0.018059000372886658 -0.006246000062674284 0.07910600304603577 0.019213000312447548 -0.005683000199496746
          0.08717700093984604 0.01512799970805645 -0.0018179999897256494 0.08855299651622772 0.01472300011664629 0.0006259999936446548
          0.08596599847078323 0.015262000262737274 -0.0030960000585764647 0.0771780014038086 0.024305999279022217 -0.002560999942943454
          0.07687000185251236 0.02477099932730198 -0.003235999960452318 0.07766000181436539 0.026660999283194542 -0.0032840000931173563
          0.07758700102567673 0.02780899964272976 -0.00318100000731647 0.07788000255823135 0.02323799952864647 -0.0029589999467134476
          0.07993000000715256 0.030445000156760216 -0.0045900000259280205 0.07857900112867355 0.02850699983537197 -0.0038739999290555716
          0.09002099931240082 0.012555000372231007 0.0015109999803826213 0.09062100201845169 0.012481999583542347 0.0018159999744966626
          0.08920300006866455 0.013508999720215797 0.0009970000246539712 0.08811700344085693 0.014275000430643559 -0.0018779999809339643
          0.08802399784326553 0.014063999988138676 -0.0013539999490603805 0.08937899768352509 0.01295899972319603 0.0008699999889358878
          0.08720000088214874 0.014790999703109264 -0.0024059999268501997 0.0811460018157959 0.017867999151349068 -0.006670000031590462
          0.07730399817228317 0.024212000891566277 -0.004162000026553869 0.07938399910926819 0.019665999338030815 -0.006231000181287527
          0.07966099679470062 0.01869799941778183 -0.006157999858260155 0.07834000140428543 0.021341999992728233 -0.005446999799460173
          <InformationKey name="L2_NORM_RANGE" location="vtkDataArray" length="2">
            <Value index="0">
              0.080827416687
            </Value>
            <Value index="1">
              0.10321246142
            </Value>
          </InformationKey>
        </DataArray>
      </Points>
      <Verts>
        <DataArray type="Int64" Name="connectivity" format="ascii" RangeMin="1e+299" RangeMax="-1e+299">
        </DataArray>
        <DataArray type="Int64" Name="offsets" format="ascii" RangeMin="1e+299" RangeMax="-1e+299">
        </DataArray>
      </Verts>
      <Lines>
        <DataArray type="Int64" Name="connectivity" format="ascii" RangeMin="1e+299" RangeMax="-1e+299">
        </DataArray>
        <DataArray type="Int64" Name="offsets" format="ascii" RangeMin="1e+299" RangeMax="-1e+299">
        </DataArray>
      </Lines>
      <Strips>
        <DataArray type="Int64" Name="connectivity" format="ascii" RangeMin="1e+299" RangeMax="-1e+299">
        </DataArray>
        <DataArray type="Int64" Name="offsets" format="ascii" RangeMin="1e+299" RangeMax="-1e+299">
        </DataArray>
      </Strips>
      <Polys>
        <DataArray type="Int32" Name="connectivity" format="ascii" RangeMin="0" RangeMax="145">
          0 1 2 0 2 3
          0 4 1 5 2 1
          6 1 4 7 1 8
          6 8 1 5 1 7
          2 5 9 10 11 2
          10 2 9 3 2 11
          11 0 3 12 13 0
          13 4 0 11 12 0
          6 4 14 4 15 16
          4 16 14 13 15 4
          5 17 9 17 5 7
          18 8 6 14 19 6
          20 21 6 21 18 6
          6 19 20 8 22 7
          22 17 7 23 22 8
          8 24 23 24 8 25
          25 8 26 18 26 8
          9 17 27 27 28 9
          28 29 9 29 10 9
          30 10 29 31 11 10
          31 10 30 12 11 31
          31 13 12 31 15 13
          14 16 32 14 32 19
          20 16 15 20 15 31
          20 32 16 17 33 27
          33 17 34 22 34 17
          21 26 18 19 32 20
          35 36 20 20 31 35
          20 37 21 20 38 39
          36 38 20 39 37 20
          21 40 41 21 42 43
          44 45 21 43 40 21
          21 41 44 21 46 26
          45 46 21 37 42 21
          22 23 34 33 34 23
          47 33 23 48 49 23
          24 48 23 23 49 47
          25 46 24 48 24 46
          26 46 25 50 51 27
          52 27 33 53 28 27
          53 27 51 54 50 27
          55 54 27 52 55 27
          56 29 28 56 28 53
          57 29 56 57 58 29
          58 30 29 58 31 30
          31 59 35 31 58 59
          60 52 33 61 60 33
          61 33 62 62 33 47
          35 63 64 65 35 66
          59 66 35 35 67 63
          35 64 36 35 65 67
          68 36 69 70 69 36
          70 36 64 38 36 68
          37 71 72 42 37 72
          39 38 68 68 71 39
          37 39 71 73 74 40
          40 74 75 40 75 76
          43 73 40 41 40 76
          76 77 41 78 79 41
          78 41 77 44 41 79
          43 42 72 43 72 73
          79 80 44 45 44 81
          80 81 44 45 82 49
          46 45 83 45 49 83
          81 82 45 48 46 83
          84 85 47 47 85 62
          47 49 84 49 48 83
          84 49 82 54 86 50
          86 51 50 86 53 51
          55 52 87 52 88 87
          60 88 52 56 53 86
          89 54 90 54 91 90
          86 54 92 92 54 89
          54 55 87 54 93 91
          54 87 93 57 56 86
          58 57 66 57 86 66
          58 66 59 94 60 61
          88 60 95 60 96 95
          60 94 96 97 98 61
          61 98 94 61 62 99
          99 97 61 99 62 100
          101 100 62 85 101 62
          63 67 102 63 102 103
          64 63 103 104 64 103
          104 70 64 102 65 105
          65 66 92 65 106 105
          67 65 102 106 65 92
          86 92 66 69 71 68
          69 70 107 71 69 107
          70 104 108 70 108 107
          71 107 72 75 72 107
          75 74 72 72 74 73
          75 109 110 75 110 111
          109 75 107 75 111 76
          111 77 76 111 78 77
          111 110 78 112 93 78
          91 78 113 114 78 93
          78 115 116 114 115 78
          109 113 78 109 78 110
          112 78 91 116 79 78
          116 80 79 115 117 80
          101 81 80 118 119 80
          118 80 117 119 101 80
          80 116 115 81 101 85
          81 85 84 81 84 82
          87 120 121 87 122 93
          87 123 122 88 120 87
          121 123 87 88 95 120
          90 124 89 125 89 124
          89 125 92 91 126 90
          126 124 90 91 93 112
          92 125 106 122 114 93
          94 127 96 94 128 127
          94 129 117 94 117 128
          129 94 130 94 98 130
          96 120 95 96 127 131
          96 131 120 132 98 97
          132 97 99 133 130 98
          133 98 132 100 132 99
          119 132 100 101 119 100
          103 102 108 105 108 102
          108 104 103 106 134 105
          105 135 108 134 135 105
          136 106 125 134 106 136
          134 107 108 134 109 107
          135 134 108 137 109 138
          138 109 139 139 109 134
          137 113 109 126 91 113
          113 138 140 137 138 113
          140 126 113 114 141 115
          114 122 141 115 142 117
          143 115 144 141 144 115
          142 115 145 145 115 143
          128 117 142 129 118 117
          118 133 119 118 129 133
          133 132 119 121 120 131
          121 145 143 121 131 145
          121 143 123 144 122 123
          141 122 144 123 143 144
          125 124 140 126 140 124
          138 125 140 136 125 138
          127 142 131 128 142 127
          129 130 133 145 131 142
          134 136 139 139 136 138
        </DataArray>
        <DataArray type="Int32" Name="offsets" format="ascii" RangeMin="3" RangeMax="864">
          3 6 9 12 15 18
          21 24 27 30 33 36
          39 42 45 48 51 54
          57 60 63 66 69 72
          75 78 81 84 87 90
          93 96 99 102 105 108
          111 114 117 120 123 126
          129 132 135 138 141 144
          147 150 153 156 159 162
          165 168 171 174 177 180
          183 186 189 192 195 198
          201 204 207 210 213 216
          219 222 225 228 231 234
          237 240 243 246 249 252
          255 258 261 264 267 270
          273 276 279 282 285 288
          291 294 297 300 303 306
          309 312 315 318 321 324
          327 330 333 336 339 342
          345 348 351 354 357 360
          363 366 369 372 375 378
          381 384 387 390 393 396
          399 402 405 408 411 414
          417 420 423 426 429 432
          435 438 441 444 447 450
          453 456 459 462 465 468
          471 474 477 480 483 486
          489 492 495 498 501 504
          507 510 513 516 519 522
          525 528 531 534 537 540
          543 546 549 552 555 558
          561 564 567 570 573 576
          579 582 585 588 591 594
          597 600 603 606 609 612
          615 618 621 624 627 630
          633 636 639 642 645 648
          651 654 657 660 663 666
          669 672 675 678 681 684
          687 690 693 696 699 702
          705 708 711 714 717 720
          723 726 729 732 735 738
          741 744 747 750 753 756
          759 762 765 768 771 774
          777 780 783 786 789 792
          795 798 801 804 807 810
          813 816 819 822 825 828
          831 834 837 840 843 846
          849 852 855 858 861 864
        </DataArray>
      </Polys>
    </Piece>
  </PolyData>
</VTKFile>
