<?xml version="1.0"?>
<VTKFile type="PolyData" version="0.1" byte_order="LittleEndian" header_type="UInt32" compressor="vtkZLibDataCompressor">
  <PolyData>
    <Piece NumberOfPoints="212" NumberOfVerts="0" NumberOfLines="0" NumberOfStrips="0" NumberOfPolys="424">
      <PointData Normals="Normals">
        <DataArray type="Float32" Name="Normals" NumberOfComponents="3" format="ascii" RangeMin="0.9999993287798107" RangeMax="1.0000006834811952">
          0.8945389986038208 -0.4469900131225586 0.0003650000144261867 0.760483980178833 -0.6169639825820923 0.2025340050458908
          0.39096298813819885 -0.9204059839248657 0.00001700000029813964 0.914014995098114 0.25613999366760254 0.31459298729896545
          0.9901769757270813 0.13982099294662476 0.00023799999326001853 0.7605810165405273 -0.6169289946556091 -0.20227399468421936
          0.9140949845314026 0.2562370002269745 -0.31428098678588867 0.7040339708328247 -0.4975070059299469 0.5067769885063171
          0.43042701482772827 -0.5031629800796509 0.7493730187416077 -0.2260729968547821 -0.9739310145378113 -0.018688999116420746
          -0.2697399854660034 -0.9629330039024353 0.00006199999916134402 -0.19362600147724152 -0.9695299863815308 0.15007199347019196
          0.09859699755907059 -0.6606670022010803 0.7441750168800354 0.7040320038795471 -0.497514009475708 -0.5067729949951172
          0.4304249882698059 -0.5031629800796509 -0.7493739724159241 -0.22607000172138214 -0.9739320278167725 0.018665999174118042
          -0.1936189979314804 -0.9695309996604919 -0.150067999958992 0.09860599786043167 -0.6606670022010803 -0.7441740036010742
          0.8465330004692078 0.5323359966278076 0.0001939999929163605 0.762241005897522 0.5263230204582214 0.3767920136451721
          0.5324739813804626 0.34599900245666504 0.7724999785423279 0.762345016002655 0.5264089703559875 -0.37646299600601196
          0.5324710011482239 0.34599998593330383 -0.7725020051002502 0.1475130021572113 0.19999800622463226 0.9686279892921448
          -0.798160970211029 -0.5934510231018066 0.10370200127363205 -0.895222008228302 -0.4456210136413574 0.0001429999974789098
          -0.7981780171394348 -0.5934550166130066 -0.10355299711227417 -0.24035599827766418 -0.0814490020275116 0.9672620296478271
          -0.7339140176773071 -0.5209569931030273 0.4358609914779663 -0.8010380268096924 -0.4911450147628784 -0.3422200083732605
          0.14751200377941132 0.1999959945678711 -0.968629002571106 -0.7339140176773071 -0.5209569931030273 -0.4358609914779663
          -0.24035200476646423 -0.08145099878311157 -0.9672620296478271 -0.8010380268096924 -0.4911450147628784 0.3422200083732605
          0.9750109910964966 0.22215700149536133 0.00038499999209307134 0.9145320057868958 0.10896100103855133 0.3895629942417145
          0.4869230091571808 0.3561600148677826 0.797531008720398 0.9146479964256287 0.10899300128221512 -0.3892810046672821
          0.4869219958782196 0.35615599155426025 -0.7975329756736755 0.1511469930410385 0.16695499420166016 0.9743099808692932
          -0.9441879987716675 -0.2533609867095947 -0.21051500737667084 -0.9769930243492126 -0.21326999366283417 -0.00008199999865610152
          -0.9441859722137451 -0.2533529996871948 0.21053500473499298 -0.17398500442504883 0.020728999748826027 0.984529972076416
          0.03735800087451935 -0.4288040101528168 0.9026250243186951 -0.6074309945106506 -0.5907080173492432 -0.5311229825019836
          0.15115000307559967 0.16695000231266022 -0.9743109941482544 0.037358999252319336 -0.4288020133972168 -0.9026250243186951
          -0.1739879995584488 0.020733000710606575 -0.9845290184020996 -0.6074309945106506 -0.5907080173492432 0.5311220288276672
          0.9909319877624512 0.1343660056591034 0.00021600000036414713 0.9415940046310425 0.07633700221776962 0.3279849886894226
          0.5990700125694275 -0.10389500111341476 0.7939280271530151 0.9416469931602478 0.07636000216007233 -0.32782700657844543
          0.5990679860115051 -0.10389000177383423 -0.7939289808273315 0.27683499455451965 -0.21980799734592438 0.9354389905929565
          -0.9244289994239807 -0.26941800117492676 -0.2698970139026642 -0.4021899998188019 -0.06522300094366074 -0.9132300019264221
          -0.9608169794082642 -0.27718499302864075 -0.00015999999595806003 -0.9244509935379028 -0.2694459855556488 0.2697950005531311
          -0.4021899998188019 -0.06522300094366074 0.9132300019264221 0.06827300041913986 -0.2543019950389862 0.9647120237350464
          0.13633200526237488 0.046803999692201614 0.9895570278167725 0.01042999979108572 -0.9723939895629883 0.2331099957227707
          -0.0028409999795258045 -0.5870519876480103 0.809544026851654 0.05118200182914734 -0.01321799959987402 0.9986019730567932
          0.6162239909172058 0.2804670035839081 -0.7359390258789062 0.2768329977989197 -0.21980300545692444 -0.9354410171508789
          0.1363389939069748 0.04680100083351135 -0.9895560145378113 0.06827399879693985 -0.2543039917945862 -0.9647110104560852
          -0.0028389999642968178 -0.5870509743690491 -0.8095449805259705 0.010428999550640583 -0.9723939895629883 -0.23311099410057068
          0.051183998584747314 -0.01321799959987402 -0.9986019730567932 0.6163979768753052 0.28056800365448 0.7357540130615234
          0.7244790196418762 0.6892970204353333 0.00019200000679120421 0.5608149766921997 0.7498270273208618 0.3510630130767822
          0.6286360025405884 -0.06724800169467926 0.7747859954833984 0.560854971408844 0.7498649954795837 -0.3509199917316437
          0.6286380290985107 -0.06724700331687927 -0.7747859954833984 0.2447890043258667 -0.24853600561618805 0.9371809959411621
          -0.6345800161361694 0.6716349720954895 -0.38238000869750977 -0.21795299649238586 -0.07225500047206879 -0.9732810258865356
          -0.8405290246009827 0.5417670011520386 -0.00023700000019744039 -0.6346439719200134 0.6716610193252563 0.3822290003299713
          -0.21795299649238586 -0.07225500047206879 0.9732810258865356 -0.04019299894571304 -0.20048299431800842 0.9788720011711121
          -0.2282480001449585 0.16149599850177765 0.9601160287857056 -0.0772470012307167 0.6560860276222229 0.7507230043411255
          -0.5539169907569885 -0.3717620074748993 0.7449629902839661 -0.43247100710868835 -0.560329020023346 0.7063990235328674
          0.3024440109729767 -0.06794100254774094 0.9507430195808411 0.8080829977989197 -0.2585510015487671 0.529295027256012
          0.09967699646949768 0.26812800765037537 0.9582129716873169 -0.4597319960594177 -0.5810509920120239 0.6715840101242065
          0.9391999840736389 0.3433699905872345 -0.00027799999224953353 0.9410930275917053 -0.18589699268341064 -0.28246501088142395
          -0.7366179823875427 0.6763100028038025 0.000035000000934815034 -0.4678170084953308 0.427249014377594 -0.7736960053443909
          0.24479100108146667 -0.24853700399398804 -0.9371799826622009 -0.2282480001449585 0.16149599850177765 -0.9601160287857056
          -0.040189001709222794 -0.20048999786376953 -0.9788709878921509 -0.0772470012307167 0.6560860276222229 -0.7507230043411255
          -0.43247300386428833 -0.560329020023346 -0.7063980102539062 -0.5539209842681885 -0.3717600107192993 -0.7449610233306885
          0.3024449944496155 -0.06794200092554092 -0.9507420063018799 0.8080809712409973 -0.2585499882698059 -0.5292980074882507
          -0.45972898602485657 -0.581043004989624 -0.6715940237045288 0.09967000037431717 0.2681260108947754 -0.9582139849662781
          0.9411230087280273 -0.18594299256801605 0.28233298659324646 -0.4677410125732422 0.42729800939559937 0.7737150192260742
          -0.2227489948272705 0.9748759865760803 0 0.2714959979057312 0.797868013381958 0.5382339954376221
          0.1106719970703125 0.5460420250892639 0.8304150104522705 0.27149200439453125 0.7978709936141968 -0.5382329821586609
          0.11067499965429306 0.5460450053215027 -0.8304129838943481 -0.23204100131988525 0.41517001390457153 0.8796539902687073
          -0.23433400690555573 0.9494400024414062 -0.20893099904060364 -0.04749999940395355 0.91771000623703 0.39440199732780457
          -0.7146409749984741 0.4069080054759979 -0.5689589977264404 -0.3836030066013336 0.8272179961204529 0.4105600118637085
          -0.047501999884843826 0.91771000623703 -0.3944000005722046 -0.23433999717235565 0.9494370222091675 0.20893600583076477
          -0.7146379947662354 0.4069080054759979 0.5689619779586792 -0.38359299302101135 0.827226996421814 -0.4105510115623474
          0.24176199734210968 0.5998889803886414 0.7626829743385315 0.1914840042591095 0.7082639932632446 0.6794819831848145
          -0.22492000460624695 0.5298920273780823 0.8176950216293335 0.031665001064538956 -0.4257360100746155 0.9042930006980896
          0.08515399694442749 0.4560680091381073 0.8858609795570374 -0.8591529726982117 -0.018153000622987747 0.5113970041275024
          -0.0946979969739914 0.010381000116467476 0.9954519867897034 -0.8762339949607849 -0.21679599583148956 -0.4303629994392395
          -0.8841080069541931 -0.10170000046491623 -0.45608198642730713 0.9446340203285217 0.02848000079393387 0.32688799500465393
          -0.33928701281547546 0.21486100554466248 0.9158160090446472 0.1062140017747879 0.02785700000822544 0.9939529895782471
          -0.741769015789032 -0.5843679904937744 0.32907700538635254 -0.9838749766349792 -0.038343001157045364 -0.17469699680805206
          -0.05260299891233444 -0.998615026473999 -0.00016500000492669642 0.17500999569892883 -0.8780040144920349 -0.44551101326942444
          -0.9782789945602417 0.20729100704193115 0.00020399999630171806 -0.8093060255050659 0.40106400847435 0.4291520118713379
          -0.9448369741439819 0.2297080010175705 0.2334890067577362 -0.9525009989738464 0.20377500355243683 -0.22631500661373138
          -0.8092740178108215 0.4013049900531769 -0.4289869964122772 -0.9448210000991821 0.22991099953651428 -0.23335500061511993
          -0.9524850249290466 0.20375999808311462 0.22639499604701996 -0.74167400598526 0.2010589987039566 -0.6399180293083191
          -0.2320369929075241 0.4151790142059326 -0.8796510100364685 0.2417609989643097 0.5998860001564026 -0.7626850008964539
          0.19148099422454834 0.7082679867744446 -0.6794790029525757 -0.0946979969739914 0.010381000116467476 -0.9954519867897034
          -0.8591529726982117 -0.018153000622987747 -0.5113970041275024 0.031665999442338943 -0.4257330000400543 -0.9042940139770508
          -0.8762350082397461 -0.2168090045452118 0.4303550124168396 -0.8841080069541931 -0.10170800238847733 0.45608100295066833
          -0.22492800652980804 0.5298969745635986 -0.8176900148391724 0.08514700084924698 0.4560689926147461 -0.8858619928359985
          0.9446319937705994 0.02847599983215332 -0.3268919885158539 -0.33928701281547546 0.21486100554466248 -0.9158160090446472
          -0.7417619824409485 -0.5843669772148132 -0.3290959894657135 0.10621500015258789 0.02785700000822544 -0.9939529895782471
          -0.9838770031929016 -0.038346000015735626 0.17468500137329102 0.17514300346374512 -0.8780109882354736 0.4454460144042969
          -0.7416759729385376 0.20105400681495667 0.6399180293083191 -0.862205982208252 0.4827420115470886 -0.15349799394607544
          -0.35180699825286865 0.1973710060119629 -0.9150279760360718 -0.862205982208252 0.48273900151252747 0.1535010039806366
          -0.35181400179862976 0.1973710060119629 0.9150260090827942 -0.3468320071697235 -0.3659060001373291 0.8636090159416199
          -0.09034900367259979 -0.3246470093727112 0.941510021686554 -0.9003180265426636 -0.011969000101089478 0.4350680112838745
          -0.7325940132141113 -0.540382981300354 0.413875013589859 -0.6958469748497009 -0.630391001701355 0.3440980017185211
          -0.9544320106506348 0.1637679934501648 0.24947799742221832 0.3198989927768707 -0.8868370056152344 0.3334450125694275
          -0.02686000056564808 -0.9444590210914612 -0.32752901315689087 0.5070850253105164 -0.8618959784507751 -0.00021499999274965376
          -0.026982000097632408 -0.9445229768753052 0.327335000038147 -0.8328660130500793 0.12499000132083893 0.5391759872436523
          -0.9638749957084656 0.2663530111312866 -0.000910000002477318 -0.8238630294799805 -0.027597999200224876 0.566116988658905
          -0.8329309821128845 0.12496300041675568 -0.5390830039978027 -0.8236240148544312 -0.026990000158548355 -0.5664939880371094
          -0.954433023929596 0.16376499831676483 -0.24947699904441833 -0.7325940132141113 -0.540382981300354 -0.413875013589859
          -0.90031898021698 -0.01196799986064434 -0.43506601452827454 -0.6958469748497009 -0.630391001701355 -0.3440980017185211
          -0.34683099389076233 -0.36590200662612915 -0.8636109828948975 -0.09034900367259979 -0.3246470093727112 -0.941510021686554
          0.3198989927768707 -0.8868370056152344 -0.3334450125694275 -0.6594780087471008 -0.05827200040221214 0.7494620084762573
          0.01905200071632862 -0.8923590183258057 0.45092299580574036 -0.20284000039100647 -0.9700689911842346 -0.13349799811840057
          0.8169729709625244 -0.5766760110855103 0.000007000000096013537 -0.20284000039100647 -0.9700689911842346 0.13349799811840057
          0.01903899945318699 -0.8923400044441223 -0.45096200704574585 -0.8808000087738037 0.4734860062599182 -0.0014009999576956034
          -0.6583579778671265 -0.058403998613357544 -0.750436007976532 -0.1684660017490387 0.17173199355602264 0.970632016658783
          -0.010137000121176243 -0.04153800010681152 0.999085009098053 0.7164989709854126 -0.5277950167655945 0.456138014793396
          0.3728080093860626 -0.9279080033302307 -0.000522000016644597 0.7164859771728516 -0.5277770161628723 -0.4561789929866791
          -0.010161999613046646 -0.04153599962592125 -0.999085009098053 -0.8302220106124878 -0.11426600068807602 0.5455949902534485
          -0.9283450245857239 -0.37171798944473267 -0.0009769999887794256 -0.16754800081253052 0.17110200226306915 -0.9709029793739319
          -0.8291749954223633 -0.11447799950838089 -0.5471420288085938 -0.15399199724197388 -0.6917920112609863 0.705485999584198
          -0.4643389880657196 -0.885657012462616 -0.0009899999713525176 -0.15323199331760406 -0.6913149952888489 -0.7061190009117126
          <InformationKey name="L2_NORM_RANGE" location="vtkDataArray" length="2">
            <Value index="0">
              0.99999932878
            </Value>
            <Value index="1">
              1.0000006835
            </Value>
          </InformationKey>
        </DataArray>
      </PointData>
      <CellData>
      </CellData>
      <Points>
        <DataArray type="Float32" Name="Points" NumberOfComponents="3" format="ascii" RangeMin="0.18889346614198974" RangeMax="0.23846128376889614">
          -0.02128800004720688 0.20668600499629974 0.00002499999936844688 -0.02219099923968315 0.20671799778938293 0.008244000375270844
          -0.03633999824523926 0.20100900530815125 0.000003000000106112566 -0.022166000679135323 0.21161100268363953 0.009890000335872173
          -0.02091200090944767 0.20871500670909882 0.00002700000004551839 -0.02219099923968315 0.20671799778938293 -0.008244000375270844
          -0.022166000679135323 0.21161100268363953 -0.009890000335872173 -0.026926999911665916 0.2056169956922531 0.016798000782728195
          -0.03429500013589859 0.20312899351119995 0.020958000794053078 -0.04950900003314018 0.19503800570964813 0.00495699979364872
          -0.04975299909710884 0.19529299437999725 0.000003000000106112566 -0.049998000264167786 0.19516099989414215 0.014592000283300877
          -0.04571299999952316 0.19841599464416504 0.021071000024676323 -0.026926999911665916 0.2056169956922531 -0.016798000782728195
          -0.03429500013589859 0.20312899351119995 -0.020958000794053078 -0.04950900003314018 0.19503800570964813 -0.00495699979364872
          -0.049998000264167786 0.19516099989414215 -0.014592000283300877 -0.04571299999952316 0.19841599464416504 -0.021071000024676323
          -0.023249000310897827 0.2134460061788559 0.00002700000004551839 -0.024862000718712807 0.2134300023317337 0.01058799959719181
          -0.02816000021994114 0.2104330062866211 0.0178459994494915 -0.024862000718712807 0.2134300023317337 -0.01058799959719181
          -0.02816000021994114 0.2104330062866211 -0.0178459994494915 -0.03719799965620041 0.2080409973859787 0.021676000207662582
          -0.052671000361442566 0.1988220065832138 0.0051020001992583275 -0.05481300130486488 0.19706900417804718 0.000003000000106112566
          -0.052671000361442566 0.1988220065832138 -0.0051020001992583275 -0.04897399991750717 0.20369599759578705 0.021828999742865562
          -0.053429000079631805 0.19463799893856049 0.016388000920414925 -0.05405399948358536 0.20011399686336517 0.009696000255644321
          -0.03719799965620041 0.2080409973859787 -0.021676000207662582 -0.053429000079631805 0.19463799893856049 -0.016388000920414925
          -0.04897399991750717 0.20369599759578705 -0.021828999742865562 -0.05405399948358536 0.20011399686336517 -0.009696000255644321
          -0.025988999754190445 0.22328899800777435 0.000029999999242136255 -0.0271029993891716 0.22169999778270721 0.010219000279903412
          -0.031213000416755676 0.21279799938201904 0.017400000244379044 -0.0271029993891716 0.22169999778270721 -0.010219000279903412
          -0.031213000416755676 0.21279799938201904 -0.017400000244379044 -0.038780998438596725 0.2125609964132309 0.019719000905752182
          -0.0545790009200573 0.20683600008487701 0.006541999988257885 -0.0540819987654686 0.2070080041885376 0.000004999999873689376
          -0.0545790009200573 0.20683600008487701 -0.006541999988257885 -0.04809800162911415 0.20891700685024261 0.020659999921917915
          -0.05299299955368042 0.2056960016489029 0.01953599974513054 -0.0566370002925396 0.20692799985408783 0.010005000047385693
          -0.038780998438596725 0.2125609964132309 -0.019719000905752182 -0.05299299955368042 0.2056960016489029 -0.01953599974513054
          -0.04809800162911415 0.20891700685024261 -0.020659999921917915 -0.0566370002925396 0.20692799985408783 -0.010005000047385693
          -0.026559999212622643 0.22766000032424927 0.00003099999958067201 -0.027077000588178635 0.227060005068779 0.01130400039255619
          -0.033229000866413116 0.22065499424934387 0.01806900091469288 -0.027077000588178635 0.227060005068779 -0.01130400039255619
          -0.033229000866413116 0.22065499424934387 -0.01806900091469288 -0.038284000009298325 0.2194419950246811 0.019809000194072723
          -0.05868399888277054 0.21742799878120422 0.00675999978557229 -0.060825999826192856 0.21735000610351562 0.010460999794304371
          -0.05796999856829643 0.217740997672081 0.000007999999979801942 -0.05868399888277054 0.21742799878120422 -0.00675999978557229
          -0.060825999826192856 0.21735000610351562 -0.010460999794304371 -0.04872800037264824 0.21707600355148315 0.020809000357985497
          -0.053870998322963715 0.2168309986591339 0.02121400088071823 -0.05909699946641922 0.2035589963197708 0.01759899966418743
          -0.05700099840760231 0.20736299455165863 0.021577000617980957 -0.060485001653432846 0.2148669958114624 0.025800000876188278
          -0.06690599769353867 0.21037200093269348 0.0038399999029934406 -0.038284000009298325 0.2194419950246811 -0.019809000194072723
          -0.053870998322963715 0.2168309986591339 -0.02121400088071823 -0.04872800037264824 0.21707600355148315 -0.020809000357985497
          -0.05700099840760231 0.20736299455165863 -0.021577000617980957 -0.05909699946641922 0.2035589963197708 -0.01759899966418743
          -0.060485001653432846 0.2148669958114624 -0.025800000876188278 -0.06690599769353867 0.21037200093269348 -0.0038399999029934406
          -0.027950000017881393 0.23234300315380096 0.00003199999991920777 -0.028736000880599022 0.2318580001592636 0.011510999873280525
          -0.032294001430273056 0.22520999610424042 0.01912599988281727 -0.028736000880599022 0.2318580001592636 -0.011510999873280525
          -0.032294001430273056 0.22520999610424042 -0.01912599988281727 -0.038419999182224274 0.22297100722789764 0.02190300077199936
          -0.06124600023031235 0.2250020056962967 0.008617999963462353 -0.06154000014066696 0.2229599952697754 0.011233000084757805
          -0.05929400026798248 0.2244739979505539 0.000009000000318337698 -0.06124600023031235 0.2250020056962967 -0.008617999963462353
          -0.06154000014066696 0.2229599952697754 -0.011233000084757805 -0.047669000923633575 0.22224800288677216 0.022958999499678612
          -0.05611699819564819 0.22121599316596985 0.020500000566244125 -0.06290099769830704 0.2208230048418045 0.020547999069094658
          -0.07112900167703629 0.21345800161361694 0.023816000670194626 -0.06818799674510956 0.20943500101566315 0.01769999973475933
          -0.0636570006608963 0.20366699993610382 0.025474999099969864 -0.06036999821662903 0.20015400648117065 0.010847999714314938
          -0.06540299952030182 0.21366900205612183 0.024501999840140343 -0.06529200077056885 0.205704003572464 0.022274000570178032
          -0.066102996468544 0.20435599982738495 0.000003999999989900971 -0.061712998896837234 0.18828199803829193 0.005268000066280365
          -0.07627400010824203 0.2111539989709854 0.000004999999873689376 -0.07075300067663193 0.21616999804973602 0.007949000224471092
          -0.038419999182224274 0.22297100722789764 -0.02190300077199936 -0.05611699819564819 0.22121599316596985 -0.020500000566244125
          -0.047669000923633575 0.22224800288677216 -0.022958999499678612 -0.06290099769830704 0.2208230048418045 -0.020547999069094658
          -0.06818799674510956 0.20943500101566315 -0.01769999973475933 -0.07112900167703629 0.21345800161361694 -0.023816000670194626
          -0.0636570006608963 0.20366699993610382 -0.025474999099969864 -0.06036999821662903 0.20015400648117065 -0.010847999714314938
          -0.06529200077056885 0.205704003572464 -0.022274000570178032 -0.06540299952030182 0.21366900205612183 -0.024501999840140343
          -0.061712998896837234 0.18828199803829193 -0.005268000066280365 -0.07075300067663193 0.21616999804973602 -0.007949000224471092
          -0.04362199828028679 0.22840900719165802 0.000009999999747378752 -0.03381400182843208 0.23028400540351868 0.01939000003039837
          -0.04098900035023689 0.22860200703144073 0.022960999980568886 -0.03381400182843208 0.23028400540351868 -0.01939000003039837
          -0.04098900035023689 0.22860200703144073 -0.022960999980568886 -0.0500820018351078 0.2257079929113388 0.023101000115275383
          -0.07197999954223633 0.22621099650859833 0.016478000208735466 -0.06310799717903137 0.2228340059518814 0.014526000246405602
          -0.07103200256824493 0.22341300547122955 0.010363999754190445 -0.05917099863290787 0.22499600052833557 0.01763099990785122
          -0.06310799717903137 0.2228340059518814 -0.014526000246405602 -0.07197999954223633 0.22621099650859833 -0.016478000208735466
          -0.07103200256824493 0.22341300547122955 -0.010363999754190445 -0.05917099863290787 0.22499600052833557 -0.01763099990785122
          -0.0691789984703064 0.2188510000705719 0.021870000287890434 -0.06900099664926529 0.22241699695587158 0.01894400082528591
          -0.07810399681329727 0.22443200647830963 0.01984499953687191 -0.07673399895429611 0.21518200635910034 0.014623000286519527
          -0.07255099713802338 0.21971499919891357 0.02191000059247017 -0.0733489990234375 0.19899800419807434 0.013020000420510769
          -0.06931299716234207 0.20184700191020966 0.015938999131321907 -0.08298700302839279 0.21285699307918549 0.01756099984049797
          -0.07473400235176086 0.21305300295352936 0.01305800024420023 -0.06172600015997887 0.20154500007629395 0.012357000261545181
          -0.07212699949741364 0.19477899372577667 0.017556000500917435 -0.06939700245857239 0.21297100186347961 0.02710000053048134
          -0.07045800238847733 0.21021200716495514 0.024714000523090363 -0.07336699962615967 0.21740899980068207 0.02506200037896633
          -0.0657690018415451 0.19295799732208252 0.000003000000106112566 -0.061167001724243164 0.18727900087833405 0.006903000175952911
          -0.07985100150108337 0.1968279927968979 0.000003999999989900971 -0.07612399756908417 0.20534299314022064 0.005106000229716301
          -0.07191000133752823 0.20528200268745422 0.008549000136554241 -0.07331299781799316 0.21162399649620056 0.010714000090956688
          -0.07612399756908417 0.20534299314022064 -0.005106000229716301 -0.07191000133752823 0.20528200268745422 -0.008549000136554241
          -0.07331299781799316 0.21162399649620056 -0.010714000090956688 -0.0719899982213974 0.21642200648784637 0.011691000312566757
          -0.0500820018351078 0.2257079929113388 -0.023101000115275383 -0.0691789984703064 0.2188510000705719 -0.021870000287890434
          -0.06900099664926529 0.22241699695587158 -0.01894400082528591 -0.06931299716234207 0.20184700191020966 -0.015938999131321907
          -0.0733489990234375 0.19899800419807434 -0.013020000420510769 -0.07673399895429611 0.21518200635910034 -0.014623000286519527
          -0.08298700302839279 0.21285699307918549 -0.01756099984049797 -0.07473400235176086 0.21305300295352936 -0.01305800024420023
          -0.07810399681329727 0.22443200647830963 -0.019843999296426773 -0.07255099713802338 0.21971499919891357 -0.02191000059247017
          -0.06172600015997887 0.20154500007629395 -0.012357000261545181 -0.07212699949741364 0.19477899372577667 -0.017556000500917435
          -0.07045800238847733 0.21021200716495514 -0.024714000523090363 -0.06939700245857239 0.21297100186347961 -0.02710000053048134
          -0.07336699962615967 0.21740899980068207 -0.02506200037896633 -0.061167001724243164 0.18727900087833405 -0.006903000175952911
          -0.0719899982213974 0.21642200648784637 -0.011691000312566757 -0.08294700086116791 0.21960599720478058 0.01663300022482872
          -0.07675699889659882 0.2190379947423935 0.01433899998664856 -0.08294700086116791 0.21960599720478058 -0.01663300022482872
          -0.07675699889659882 0.2190379947423935 -0.01433899998664856 -0.08071800321340561 0.2185489982366562 0.021988000720739365
          -0.0819379985332489 0.2156590074300766 0.017085999250411987 -0.07506000250577927 0.19538399577140808 0.01056899968534708
          -0.07408499717712402 0.19060300290584564 0.010001000016927719 -0.07036399841308594 0.18787699937820435 0.017305999994277954
          -0.07373800128698349 0.20121100544929504 0.009115000255405903 -0.061771001666784286 0.18459899723529816 0.013717999681830406
          -0.06440799683332443 0.18991300463676453 0.005489000119268894 -0.06809700280427933 0.19272799789905548 9.999999974752427e-7
          -0.06440799683332443 0.18991300463676453 -0.005489000119268894 -0.07891499996185303 0.19986900687217712 0.004311999771744013
          -0.08282499760389328 0.18973200023174286 -0.000015999999959603883 -0.07744099944829941 0.19526199996471405 0.004195000045001507
          -0.07891499996185303 0.19986900687217712 -0.004311999771744013 -0.07744099944829941 0.19526199996471405 -0.004195000045001507
          -0.07373800128698349 0.20121100544929504 -0.009115000255405903 -0.07408499717712402 0.19060300290584564 -0.010001000016927719
          -0.07506000250577927 0.19538399577140808 -0.01056899968534708 -0.07036399841308594 0.18787699937820435 -0.017305999994277954
          -0.08071800321340561 0.2185489982366562 -0.021988000720739365 -0.0819379985332489 0.2156590074300766 -0.017085999250411987
          -0.061771001666784286 0.18459899723529816 -0.013717999681830406 -0.07652900367975235 0.19071799516677856 0.004375999793410301
          -0.07500600069761276 0.18876400589942932 0.0051299999468028545 -0.06949499994516373 0.18876099586486816 0.007867000065743923
          -0.07358500361442566 0.1836560070514679 0 -0.06949499994516373 0.18876099586486816 -0.007867000065743923
          -0.07500600069761276 0.18876400589942932 -0.0051299999468028545 -0.08765199780464172 0.1799509972333908 -0.00002099999983329326
          -0.07652900367975235 0.19071799516677856 -0.004375999793410301 -0.07968199998140335 0.18178600072860718 0.0047610001638531685
          -0.0758500024676323 0.1802549958229065 0.004778999835252762 -0.07806800305843353 0.17239299416542053 0.003711000084877014
          -0.07972600311040878 0.17124399542808533 -0.000003000000106112566 -0.07806800305843353 0.17239299416542053 -0.003711000084877014
          -0.0758500024676323 0.1802549958229065 -0.004778999835252762 -0.08816999942064285 0.17593200504779816 0.004813999868929386
          -0.08868300169706345 0.1742130070924759 -0.00002300000051036477 -0.07968199998140335 0.18178600072860718 -0.0047610001638531685
          -0.08816999942064285 0.17593200504779816 -0.004813999868929386 -0.08547300100326538 0.17271700501441956 0.0056059998460114
          -0.0839880034327507 0.17104899883270264 -0.00002099999983329326 -0.08547300100326538 0.17271700501441956 -0.0056059998460114
          <InformationKey name="L2_NORM_RANGE" location="vtkDataArray" length="2">
            <Value index="0">
              0.18889346614
            </Value>
            <Value index="1">
              0.23846128377
            </Value>
          </InformationKey>
        </DataArray>
      </Points>
      <Verts>
        <DataArray type="Int64" Name="connectivity" format="ascii" RangeMin="1e+299" RangeMax="-1e+299">
        </DataArray>
        <DataArray type="Int64" Name="offsets" format="ascii" RangeMin="1e+299" RangeMax="-1e+299">
        </DataArray>
      </Verts>
      <Lines>
        <DataArray type="Int64" Name="connectivity" format="ascii" RangeMin="1e+299" RangeMax="-1e+299">
        </DataArray>
        <DataArray type="Int64" Name="offsets" format="ascii" RangeMin="1e+299" RangeMax="-1e+299">
        </DataArray>
      </Lines>
      <Strips>
        <DataArray type="Int64" Name="connectivity" format="ascii" RangeMin="1e+299" RangeMax="-1e+299">
        </DataArray>