<?xml version="1.0"?>
<VTKFile type="PolyData" version="0.1" byte_order="LittleEndian" header_type="UInt32" compressor="vtkZLibDataCompressor">
  <PolyData>
    <Piece NumberOfPoints="212" NumberOfVerts="0" NumberOfLines="0" NumberOfStrips="0" NumberOfPolys="424">
      <PointData Normals="Normals">
        <DataArray type="Float32" Name="Normals" NumberOfComponents="3" format="ascii" RangeMin="0.9999993457500671" RangeMax="1.000000715621072">
          0.5533810257911682 -0.8329280018806458 0.0003279999946244061 0.3378550112247467 -0.9229459762573242 0.18445999920368195
          -0.17866699397563934 -0.9839100241661072 0.000014999999621068127 0.9366899728775024 -0.21667000651359558 0.27507299184799194
          0.9371860027313232 -0.3488290011882782 0.0002119999990100041 0.33795300126075745 -0.9229559898376465 -0.18422700464725494
          0.9367830157279968 -0.2166150063276291 -0.2747989892959595 0.37171798944473267 -0.7955949902534485 0.4783869981765747
          0.1181659996509552 -0.6638129949569702 0.7385050058364868 -0.5178490281105042 -0.8553289771080017 -0.01566700078547001
          -0.6208209991455078 -0.783951997756958 -0.000014000000192027073 -0.5561820268630981 -0.8145130276679993 0.16501599550247192
          -0.29366499185562134 -0.6349200010299683 0.71458899974823 0.3717130124568939 -0.7955989837646484 -0.47838398814201355
          0.11816199868917465 -0.6638100147247314 -0.7385079860687256 -0.5178459882736206 -0.8553310036659241 0.015641000121831894
          -0.5561749935150146 -0.8145189881324768 -0.16501200199127197 -0.2936590015888214 -0.6349279880523682 -0.7145839929580688
          0.9977840185165405 0.06652999669313431 0.0001610000035725534 0.9406870007514954 0.10653699934482574 0.3221139907836914
          0.6944440007209778 0.045611001551151276 0.7180989980697632 0.9407830238342285 0.10656499862670898 -0.3218249976634979
          0.6944419741630554 0.04561400040984154 -0.7181010246276855 0.27125799655914307 0.11623699963092804 0.9554619789123535
          -0.9386709928512573 -0.3430339992046356 -0.034991998225450516 -0.9982690215110779 -0.05881199985742569 -0.000018000000636675395
          -0.9386709928512573 -0.3430350124835968 0.03498699888586998 -0.26384198665618896 -0.0007639999967068434 0.9645659923553467
          -0.7994539737701416 -0.3006579875946045 0.5200750231742859 -0.9626380205154419 -0.1892080008983612 -0.19372400641441345
          0.2712540030479431 0.11623399704694748 -0.9554640054702759 -0.799456000328064 -0.30065301060676575 -0.5200740098953247
          -0.263839989900589 -0.0007670000195503235 -0.9645659923553467 -0.9626389741897583 -0.18920700252056122 0.19371899962425232
          0.9722980260848999 -0.2337460070848465 0.0003440000000409782 0.880653977394104 -0.3038809895515442 0.36346301436424255
          0.6623499989509583 0.10984999686479568 0.7410979866981506 0.8807569742202759 -0.3038969933986664 -0.36320000886917114
          0.6623489856719971 0.10985200107097626 -0.7410979866981506 0.2560670077800751 0.12320800125598907 0.958774983882904
          -0.9229199886322021 0.2806679904460907 -0.26352301239967346 -0.9326519966125488 0.36077800393104553 -0.00007300000288523734
          -0.9229320287704468 0.28066399693489075 0.26348599791526794 -0.14610899984836578 0.049789998680353165 0.9880149960517883
          -0.19545499980449677 -0.5095170140266418 0.8379679918289185 -0.8285419940948486 -0.3466759920120239 -0.4396969974040985
          0.2560659945011139 0.12321600317955017 -0.9587739706039429 -0.1954520046710968 -0.509518027305603 -0.8379679918289185
          -0.14610999822616577 0.04979800060391426 -0.9880139827728271 -0.8285449743270874 -0.3466759920120239 0.4396910071372986
          0.9502080082893372 -0.311616986989975 0.0002010000025620684 0.8817489743232727 -0.3520050048828125 0.31402501463890076
          0.5071319937705994 -0.36234501004219055 0.7820000052452087 0.8817999958992004 -0.3520109951496124 -0.3138749897480011
          0.5071330070495605 -0.3623409867286682 -0.7820010185241699 0.1368270069360733 -0.3393400013446808 0.9306589961051941
          -0.914339005947113 0.31230899691581726 -0.2577730119228363 -0.3776150047779083 0.2453240007162094 -0.8928729891777039
          -0.9633479714393616 0.2682560086250305 -0.00014699999883305281 -0.9143720269203186 0.31229400634765625 0.25767698884010315
          -0.37762200832366943 0.2453169971704483 0.8928719758987427 -0.08066300302743912 -0.2915700078010559 0.9531430006027222
          0.22778500616550446 0.03874799981713295 0.9729400277137756 -0.3370180130004883 -0.925544023513794 0.17258800566196442
          -0.4186449944972992 -0.5231260061264038 0.7423449754714966 0.08163999766111374 -0.07419600337743759 0.9938960075378418
          0.6815239787101746 -0.061406999826431274 -0.7292150259017944 0.13683000206947327 -0.33933699131011963 -0.9306600093841553
          0.22777299582958221 0.03873800113797188 -0.9729430079460144 -0.08066599816083908 -0.29157400131225586 -0.9531409740447998
          -0.4186359941959381 -0.523127019405365 -0.7423490285873413 -0.33702099323272705 -0.925544023513794 -0.17258499562740326
          0.0816510021686554 -0.074194997549057 -0.9938960075378418 0.6817010045051575 -0.061386000365018845 0.7290509939193726
          0.9536669850349426 0.3008649945259094 0.00016900000628083944 0.8527460098266602 0.41439199447631836 0.3179669976234436
          0.5396140217781067 -0.36125099658966064 0.7604699730873108 0.852787971496582 0.4144040048122406 -0.31784000992774963
          0.5396100282669067 -0.36125800013542175 -0.7604699730873108 0.0876379981637001 -0.36808300018310547 0.9256539940834045
          -0.31403300166130066 0.8819950222969055 -0.35137999057769775 -0.2987630069255829 0.05984700098633766 -0.9524490237236023
          -0.5293560028076172 0.8483999967575073 -0.00022699999681208283 -0.31407201290130615 0.8820359706878662 0.3512429893016815
          -0.29876500368118286 0.059836000204086304 0.9524490237236023 -0.19762800633907318 -0.11406199634075165 0.9736189842224121
          -0.23337100446224213 0.33528798818588257 0.9127539992332458 0.1729860007762909 0.6921870112419128 0.7006809711456299
          -0.31103599071502686 -0.4977880120277405 0.8096070289611816 -0.4497019946575165 -0.4797300100326538 0.7534109950065613
          0.4560849964618683 -0.2901110053062439 0.8413209915161133 0.7400140166282654 -0.496847003698349 0.45334500074386597
          0.2070070058107376 0.2009579986333847 0.9574779868125916 -0.6108310222625732 -0.40625301003456116 0.6795910000801086
          0.9607380032539368 -0.27745699882507324 -0.00020900000527035445 0.6029670238494873 -0.6543909907341003 -0.4562940001487732
          -0.30348899960517883 0.9528350234031677 0.00005400000009103678 -0.3163689970970154 0.591687023639679 -0.7414969801902771
          0.08764199912548065 -0.3680900037288666 -0.9256510138511658 -0.23337000608444214 0.3352769911289215 -0.9127579927444458
          -0.197625994682312 -0.11406700313091278 -0.9736179709434509 0.17298699915409088 0.6921830177307129 -0.7006840109825134
          -0.44970300793647766 -0.4797329902648926 -0.7534080147743225 -0.31103798747062683 -0.4977889955043793 -0.8096060156822205
          0.45608898997306824 -0.29010701179504395 -0.8413209915161133 0.7400140166282654 -0.4968479871749878 -0.4533439874649048
          -0.6108160018920898 -0.4062570035457611 -0.6796029806137085 0.20700399577617645 0.20095500349998474 -0.9574790000915527
          0.6029459834098816 -0.6544430255889893 0.4562459886074066 -0.3162809908390045 0.5917059779167175 0.7415189743041992
          0.2634980082511902 0.9646599888801575 -0.000003000000106112566 0.6443349719047546 0.5722870230674744 0.5072680115699768
          0.38888901472091675 0.420399010181427 0.8197739720344543 0.644333004951477 0.572288990020752 -0.5072680115699768
          0.38888999819755554 0.4203900098800659 -0.8197780251502991 -0.13329899311065674 0.46320900321006775 0.8761669993400574
          0.0562720000743866 0.9925990104675293 -0.10761799663305283 0.21161100268363953 0.9115390181541443 0.35258498787879944
          -0.4893819987773895 0.6948649883270264 -0.526943027973175 0.005305999889969826 0.929876983165741 0.3678320050239563
          0.2116129994392395 0.9115399718284607 -0.35258299112319946 0.05627699941396713 0.9925979971885681 0.10761699825525284
          -0.4893839955329895 0.6948660016059875 0.5269389748573303 0.00532200001180172 0.9298800230026245 -0.36782601475715637
          0.4625610113143921 0.5082290172576904 0.7264580130577087 0.5019170045852661 0.5293229818344116 0.6840299963951111
          0.5636500120162964 0.2095640003681183 0.7989879846572876 0.1041639968752861 -0.7200980186462402 0.6860100030899048
          0.5905230045318604 0.09447400271892548 0.801472008228302 -0.7445809841156006 0.44879698753356934 0.4941459894180298
          -0.08154699951410294 0.1572680026292801 0.9841830134391785 -0.8681820034980774 -0.41012299060821533 -0.27938899397850037
          -0.8377140164375305 0.45896100997924805 -0.2959569990634918 0.8377439975738525 -0.44822001457214355 0.3119029998779297
          -0.014806999824941158 0.2472739964723587 0.9688320159912109 0.11265499889850616 -0.02878499962389469 0.9932169914245605
          -0.9285770058631897 -0.24766699969768524 0.27641698718070984 -0.9104210138320923 0.3620989918708801 -0.20004700124263763
          -0.19440600275993347 -0.9809209704399109 -0.00011999999696854502 -0.2827470004558563 -0.8771849870681763 -0.38807401061058044
          -0.7390769720077515 0.6736199855804443 0.00019099999917671084 -0.3742310106754303 0.8610309958457947 0.34435099363327026
          -0.6309340000152588 0.7582759857177734 0.16413600742816925 -0.8153870105743408 0.5388829708099365 -0.21153999865055084
          -0.37405699491500854 0.8611770272254944 -0.34417200088500977 -0.6308019757270813 0.7584220170974731 -0.16396500170230865
          -0.8153730034828186 0.5388749837875366 0.21161599457263947 -0.7218279838562012 0.4650779962539673 -0.5125110149383545
          -0.13328799605369568 0.4632140100002289 -0.8761659860610962 0.4625590145587921 0.5082290172576904 -0.7264590263366699
          0.5019180178642273 0.5293229818344116 -0.6840289831161499 -0.08154699951410294 0.1572680026292801 -0.9841830134391785
          -0.7445780038833618 0.44879698753356934 -0.4941500127315521 0.10416799783706665 -0.7200940251350403 -0.6860129833221436
          -0.8681820034980774 -0.4101189970970154 0.27939799427986145 -0.8377140164375305 0.45896100997924805 0.2959569990634918
          0.5636469721794128 0.20956599712371826 -0.7989889979362488 0.5905219912528992 0.09447500109672546 -0.8014730215072632
          0.8377450108528137 -0.4482190012931824 -0.3119029998779297 -0.014805999584496021 0.24728000164031982 -0.9688310027122498
          -0.9285699725151062 -0.24766799807548523 -0.27643701434135437 0.11265099793672562 -0.028780000284314156 -0.9932180047035217
          -0.9104250073432922 0.36209601163864136 0.20003099739551544 -0.28264400362968445 -0.877232015132904 0.38804200291633606
          -0.7218289971351624 0.4650759994983673 0.5125100016593933 -0.7477530241012573 0.5784249901771545 -0.3260200023651123
          -0.6315730214118958 0.2493010014295578 -0.734142005443573 -0.7477440237998962 0.578436017036438 0.32602301239967346
          -0.6315709948539734 0.24929599463939667 0.734145998954773 -0.6019250154495239 -0.198293998837471 0.7735409736633301
          -0.7479140162467957 -0.6057419776916504 0.27147799730300903 -0.8269699811935425 0.3783459961414337 0.4159019887447357
          -0.9023600220680237 -0.1949940025806427 0.38434898853302 -0.8083739876747131 -0.42952001094818115 0.4025470018386841
          -0.7038869857788086 0.6665599942207336 0.24544000625610352 0.2136169970035553 -0.9427030086517334 0.25627800822257996
          0.018571000546216965 -0.9462760090827942 -0.32282599806785583 0.6442800164222717 -0.7647899985313416 -0.00007899999764049426
          0.018530000001192093 -0.9463189840316772 0.3227030038833618 -0.6472349762916565 0.5759919881820679 0.49932000041007996
          -0.820455014705658 0.571711003780365 -0.0007319999858736992 -0.7704920172691345 0.31294798851013184 0.555342972278595
          -0.647284984588623 0.5759940147399902 -0.49925199151039124 -0.77019202709198 0.3132460117340088 -0.5555909872055054
          -0.703885018825531 0.6665610074996948 -0.24544399976730347 -0.9023579955101013 -0.19499799609184265 -0.3843519985675812
          -0.8269670009613037 0.3783470094203949 -0.41590800881385803 -0.8083760142326355 -0.42951500415802 -0.40255001187324524
          -0.6019189953804016 -0.19827599823474884 -0.7735499739646912 -0.7479259967803955 -0.6057249903678894 -0.27148500084877014
          0.21362200379371643 -0.942700982093811 -0.2562809884548187 -0.6698960065841675 0.18996599316596985 0.7177410125732422
          -0.08163599669933319 -0.9174150228500366 0.3894670009613037 -0.27480700612068176 -0.9247859716415405 -0.263155996799469
          0.5862219929695129 -0.8101509809494019 0.000025999999706982635 -0.2748030126094818 -0.9247869849205017 0.26315900683403015
          -0.08161800354719162 -0.9173889756202698 -0.38953301310539246 -0.6349160075187683 0.7725790143013 -0.0017600000137463212
          -0.6689260005950928 0.18939800560474396 -0.7187950015068054 -0.15435799956321716 0.2029699981212616 0.9669420123100281
          -0.08623799681663513 -0.042497001588344574 0.9953680038452148 0.4829069972038269 -0.7248049974441528 0.49138298630714417
          0.046702999621629715 -0.9989079833030701 -0.0011210000375285745 0.48290398716926575 -0.7247909903526306 -0.4914090037345886
          -0.08618800342082977 -0.042527999728918076 -0.9953709840774536 -0.7857030034065247 0.23465999960899353 0.5723689794540405
          -0.9969310164451599 0.07827399671077728 -0.0010349999647587538 -0.15343600511550903 0.20146900415420532 -0.967402994632721
          -0.7848489880561829 0.23369599878787994 -0.5739319920539856 -0.416375994682312 -0.6200810074806213 0.6649289727210999
          -0.7271170020103455 -0.6865130066871643 -0.00120599998626858 -0.4149259924888611 -0.6198660135269165 -0.6660360097885132
          <InformationKey name="L2_NORM_RANGE" location="vtkDataArray" length="2">
            <Value index="0">
              0.99999934575
            </Value>
            <Value index="1">
              1.0000007156
            </Value>
          </InformationKey>
        </DataArray>
      </PointData>
      <CellData>
      </CellData>
      <Points>
        <DataArray type="Float32" Name="Points" NumberOfComponents="3" format="ascii" RangeMin="0.2768258781084006" RangeMax="0.3234859418509173">
          -0.05823000147938728 0.2706280052661896 0.0015219999477267265 -0.05883000046014786 0.2710449993610382 0.00914200022816658
          -0.07047200202941895 0.27338600158691406 0.0015020000282675028 -0.05704300105571747 0.27434301376342773 0.010666999965906143
          -0.05724199861288071 0.27183398604393005 0.0015239999629557133 -0.05883000046014786 0.2710449993610382 -0.006144000217318535
          -0.05704300105571747 0.27434301376342773 -0.007670000195503235 -0.06243399903178215 0.27237600088119507 0.01707099936902523
          -0.06832099705934525 0.27392300963401794 0.020927999168634415 -0.08154500275850296 0.27511999011039734 0.006095000077039003
          -0.08161800354719162 0.2754000127315521 0.0015020000282675028 -0.08183199912309647 0.2754180133342743 0.01502699963748455
          -0.07775399833917618 0.27574101090431213 0.021031999960541725 -0.06243399903178215 0.27237600088119507 -0.01407300028949976
          -0.06832099705934525 0.27392300963401794 -0.01792999915778637 -0.08154500275850296 0.27511999011039734 -0.003097000066190958
          -0.08183199912309647 0.2754180133342743 -0.012028999626636505 -0.07775399833917618 0.27574101090431213 -0.01803399994969368
          -0.05711299926042557 0.27605798840522766 0.0015239999629557133 -0.05821099877357483 0.2767539918422699 0.011315000243484974
          -0.06152699887752533 0.27617400884628296 0.018042000010609627 -0.05821099877357483 0.2767539918422699 -0.008317000232636929
          -0.06152699887752533 0.27617400884628296 -0.015045000240206718 -0.06850899755954742 0.2785170078277588 0.02159300073981285
          -0.08441200107336044 0.27893900871276855 0.00622900016605854 -0.08440099656581879 0.2788180112838745 0.0015020000282675028
          -0.08441200107336044 0.27893900871276855 -0.0032309999223798513 -0.07805199921131134 0.28074100613594055 0.02173599973320961
          -0.08434399962425232 0.2765679955482483 0.016690999269485474 -0.08502499759197235 0.28041398525238037 0.010487999767065048
          -0.06850899755954742 0.2785170078277588 -0.018595000728964806 -0.08434399962425232 0.2765679955482483 -0.013693000189960003
          -0.07805199921131134 0.28074100613594055 -0.018737999722361565 -0.08502499759197235 0.28041398525238037 -0.00749000022187829
          -0.0553940013051033 0.28456398844718933 0.0015259999781847 -0.05680299922823906 0.2839379906654358 0.01097199972718954
          -0.06273800134658813 0.27911099791526794 0.017628999426960945 -0.05680299922823906 0.2839379906654358 -0.007974999956786633
          -0.06273800134658813 0.27911099791526794 -0.014631999656558037 -0.06794700026512146 0.2822679877281189 0.01977900043129921
          -0.0830869972705841 0.28527599573135376 0.007563000079244375 -0.0826449990272522 0.2851850092411041 0.0015030000358819962
          -0.0830869972705841 0.28527599573135376 -0.00456599984318018 -0.07738299667835236 0.2839759886264801 0.02065199986100197
          -0.08226600289344788 0.2838189899921417 0.0196090005338192 -0.08463600277900696 0.28620800375938416 0.010773999616503716
          -0.06794700026512146 0.2822679877281189 -0.016781000420451164 -0.08226600289344788 0.2838189899921417 -0.01661200076341629
          -0.07738299667835236 0.2839759886264801 -0.017653999850153923 -0.08463600277900696 0.28620800375938416 -0.007776999846100807
          -0.05431000143289566 0.28782200813293457 0.0015279999934136868 -0.05491600185632706 0.2876270115375519 0.011978000402450562
          -0.061873000115156174 0.2858020067214966 0.01824899949133396 -0.05491600185632706 0.2876270115375519 -0.008980000391602516
          -0.061873000115156174 0.2858020067214966 -0.015251999720931053 -0.06617899984121323 0.2870990037918091 0.019863000139594078
          -0.07996299862861633 0.2925420105457306 0.007765000220388174 -0.08163599669933319 0.29339298605918884 0.011196999810636044
          -0.07930599898099899 0.2924570143222809 0.0015059999423101544 -0.07996299862861633 0.2925420105457306 -0.004767999984323978
          -0.08163599669933319 0.29339298605918884 -0.008198999799787998 -0.0750259980559349 0.28987500071525574 0.02078999951481819
          -0.07906299829483032 0.29187700152397156 0.021165000274777412 -0.0877000018954277 0.28492099046707153 0.017813999205827713
          -0.08476399630308151 0.2866620123386383 0.021501999348402023 -0.08223900198936462 0.29153499007225037 0.02541700005531311
          -0.09172099828720093 0.2897289991378784 0.005059000104665756 -0.06617899984121323 0.2870990037918091 -0.016865000128746033
          -0.07906299829483032 0.29187700152397156 -0.018167000263929367 -0.0750259980559349 0.28987500071525574 -0.017791999503970146
          -0.08476399630308151 0.2866620123386383 -0.018503999337553978 -0.0877000018954277 0.28492099046707153 -0.014816000126302242
          -0.08223900198936462 0.29153499007225037 -0.022419000044465065 -0.09172099828720093 0.2897289991378784 -0.002061000093817711
          -0.05374699831008911 0.2916420102119446 0.0015279999934136868 -0.05451999977231026 0.2916390001773834 0.01217000000178814
          -0.059567999094724655 0.2885519862174988 0.01923000067472458 -0.05451999977231026 0.2916390001773834 -0.009173000231385231
          -0.059567999094724655 0.2885519862174988 -0.016232000663876534 -0.06505399942398071 0.28959301114082336 0.021803999319672585
          -0.07929400354623795 0.2988530099391937 0.009487999603152275 -0.08023100346326828 0.2975679934024811 0.011912000365555286
          -0.07797800004482269 0.29766398668289185 0.0015069999499246478 -0.07929400354623795 0.2988530099391937 -0.006490000057965517
          -0.08023100346326828 0.2975679934024811 -0.008914000354707241 -0.07241100072860718 0.29299798607826233 0.022783000022172928
          -0.07667200267314911 0.29407399892807007 0.020502999424934387 -0.08202099800109863 0.2966670095920563 0.020547999069094658
          -0.09397699683904648 0.29357901215553284 0.02357799932360649 -0.09303099662065506 0.28958699107170105 0.017907999455928802
          -0.09142900258302689 0.2837370038032532 0.025116000324487686 -0.08986300230026245 0.2831079959869385 0.011555000208318233
          -0.0894550010561943 0.29143399000167847 0.024212999269366264 -0.09202200174331665 0.2858160138130188 0.022148000076413155
          -0.09310100227594376 0.285196989774704 0.0015020000282675028 -0.09788999706506729 0.2756370007991791 0.006382000166922808
          -0.09909699857234955 0.29266101121902466 0.0015040000434964895 -0.09278099983930588 0.29532599449157715 0.008867999538779259
          -0.06505399942398071 0.28959301114082336 -0.01880599930882454 -0.07667200267314911 0.29407399892807007 -0.01750599965453148
          -0.07241100072860718 0.29299798607826233 -0.019785000011324883 -0.08202099800109863 0.2966670095920563 -0.017550000920891762
          -0.09303099662065506 0.28958699107170105 -0.014910000376403332 -0.09397699683904648 0.29357901215553284 -0.020579999312758446
          -0.09142900258302689 0.2837370038032532 -0.02211800031363964 -0.08986300230026245 0.2831079959869385 -0.008557000197470188
          -0.09202200174331665 0.2858160138130188 -0.019151000306010246 -0.0894550010561943 0.29143399000167847 -0.02121499925851822
          -0.09788999706506729 0.2756370007991791 -0.0033839999232441187 -0.09278099983930588 0.29532599449157715 -0.005869999993592501
          -0.06715600192546844 0.29554200172424316 0.0015079999575391412 -0.058970000594854355 0.2926959991455078 0.019474999979138374
          -0.06506700068712234 0.29456400871276855 0.022785000503063202 -0.058970000594854355 0.2926959991455078 -0.01647699996829033
          -0.06506700068712234 0.29456400871276855 -0.019787000492215157 -0.07305999845266342 0.29640498757362366 0.022915000095963478
          -0.09038999676704407 0.30284300446510315 0.01677500084042549 -0.08147899806499481 0.2981419861316681 0.014964999631047249
          -0.09058599919080734 0.30050599575042725 0.011106999590992928 -0.07770200073719025 0.29797300696372986 0.01784300059080124
          -0.08147899806499481 0.2981419861316681 -0.011966999620199203 -0.09038999676704407 0.30284300446510315 -0.013776999898254871
          -0.09058599919080734 0.30050599575042725 -0.008108999580144882 -0.07770200073719025 0.29797300696372986 -0.014844999648630619
          -0.09066399931907654 0.2965719997882843 0.021772999316453934 -0.0893390029668808 0.2989960014820099 0.019060999155044556
          -0.10201899707317352 0.30500900745391846 0.034710001200437546 -0.09838800132274628 0.29599401354789734 0.021635999903082848
          -0.09299799799919128 0.2985270023345947 0.021810000762343407 -0.10454700142145157 0.28322601318359375 0.0135690001770854
          -0.1004600003361702 0.2836039960384369 0.01627499982714653 -0.10402300208806992 0.29687100648880005 0.02568100020289421
          -0.09726700186729431 0.2933740019798279 0.013604000210762024 -0.09063500165939331 0.28147900104522705 0.012954000383615494
          -0.10500200092792511 0.2797839939594269 0.017774000763893127 -0.09279300272464752 0.29254400730133057 0.026621999219059944
          -0.09453599900007248 0.29103899002075195 0.024410000070929527 -0.09440000355243683 0.2972390055656433 0.02473299950361252
          -0.09948500245809555 0.28053298592567444 0.0015010000206530094 -0.09780000150203705 0.2747170031070709 0.007898000068962574
          -0.11032400280237198 0.2843089997768402 0.0015030000358819962 -0.10056299716234207 0.289900004863739 0.006231999956071377
          -0.09730800241231918 0.2881700098514557 0.009424000047147274 -0.09663800150156021 0.2918049991130829 0.01143100019544363
          -0.10056299716234207 0.289900004863739 -0.003234999952837825 -0.09730800241231918 0.2881700098514557 -0.006426000036299229
          -0.09663800150156021 0.2918049991130829 -0.008434000425040722 -0.09365899860858917 0.2959980070590973 0.012337000109255314
          -0.07305999845266342 0.29640498757362366 -0.019917000085115433 -0.09066399931907654 0.2965719997882843 -0.018775999546051025
          -0.0893390029668808 0.2989960014820099 -0.01606299914419651 -0.1004600003361702 0.2836039960384369 -0.013276999816298485
          -0.10454700142145157 0.28322601318359375 -0.010571000166237354 -0.09838800132274628 0.29599401354789734 -0.01863900013267994
          -0.10402300208806992 0.29687100648880005 -0.022683000192046165 -0.09726700186729431 0.2933740019798279 -0.010607000440359116
          -0.10201899707317352 0.30500900745391846 -0.03171199932694435 -0.09299799799919128 0.2985270023345947 -0.01881299912929535
          -0.09063500165939331 0.28147900104522705 -0.00995699968189001 -0.10500200092792511 0.2797839939594269 -0.014777000062167645
          -0.09453599900007248 0.29103899002075195 -0.021412000060081482 -0.09279300272464752 0.29254400730133057 -0.0236239992082119
          -0.09440000355243683 0.2972390055656433 -0.021734999492764473 -0.09780000150203705 0.2747170031070709 -0.004900000058114529
          -0.09365899860858917 0.2959980070590973 -0.009339000098407269 -0.10739099979400635 0.3035700023174286 0.029335999861359596
          -0.09684599936008453 0.29837098717689514 0.014791999943554401 -0.10739099979400635 0.3035700023174286 -0.02633799985051155
          -0.09684599936008453 0.29837098717689514 -0.011793999932706356 -0.10600999742746353 0.301937997341156 0.03829700127243996
          -0.10792099684476852 0.30040401220321655 0.0300929993391037 -0.10708100348711014 0.2813810110092163 0.011296999640762806
          -0.107914999127388 0.277646005153656 0.010769999586045742 -0.10593099892139435 0.27424898743629456 0.017542000859975815
          -0.10411199927330017 0.2849299907684326 0.009948999620974064 -0.09916199743747711 0.27308300137519836 0.014216000214219093
          -0.0994419977068901 0.2778570055961609 0.006587999872863293 -0.10255199670791626 0.27673599123954773 0.001500000013038516
          -0.0994419977068901 0.2778570055961609 -0.003590000094845891 -0.108583003282547 0.28606298565864563 0.005495999939739704
          -0.11825399845838547 0.27549800276756287 0.001484000007621944 -0.10897199809551239 0.28224900364875793 0.005386999808251858
          -0.108583003282547 0.28606298565864563 -0.0024979999288916588 -0.10897199809551239 0.28224900364875793 -0.0023900000378489494
          -0.10411199927330017 0.2849299907684326 -0.006951000075787306 -0.107914999127388 0.277646005153656 -0.007772000040858984
          -0.10708100348711014 0.2813810110092163 -0.00829899962991476 -0.10593099892139435 0.27424898743629456 -0.014543999917805195
          -0.10600999742746353 0.301937997341156 -0.03530000150203705 -0.10792200267314911 0.30040401220321655 -0.027094999328255653
          -0.09916199743747711 0.27308300137519836 -0.011218000203371048 -0.10977700352668762 0.2787039875984192 0.005555000156164169
          -0.10924399644136429 0.2767280042171478 0.006254999898374081 -0.10496100038290024 0.2745189964771271 0.008791999891400337
          -0.10983999818563461 0.2725850045681 0.0014979999978095293 -0.10496100038290024 0.2745189964771271 -0.005795000120997429
          -0.10924399644136429 0.2767280042171478 -0.0032569998875260353 -0.12504099309444427 0.26698601245880127 0.001478999969549477
          -0.10977700352668762 0.2787039875984192 -0.0025579999200999737 -0.11975300312042236 0.265051007270813 0.0043750000186264515
          -0.11273399740457535 0.27111101150512695 0.005929000210016966 -0.12146300077438354 0.2586280107498169 0.0037410000804811716
          -0.12207400053739548 0.25849398970603943 0.0014959999825805426 -0.12146300077438354 0.2586280107498169 -0.0007430000114254653
          -0.11273399740457535 0.27111101150512695 -0.002930999966338277 -0.12752200663089752 0.2643899917602539 0.004406999796628952
          -0.12839999794960022 0.2633970081806183 0.0014850000152364373 -0.11975300312042236 0.265051007270813 -0.0013770000077784061
          -0.12752200663089752 0.2643899917602539 -0.0014090000186115503 -0.12657399475574493 0.2610569894313812 0.004885000176727772
          -0.12511299550533295 0.25929200649261475 0.001478999969549477 -0.12657399475574493 0.2610569894313812 -0.001888000057078898
          <InformationKey name="L2_NORM_RANGE" location="vtkDataArray" length="2">
            <Value index="0">
              0.27682587811
            </Value>
            <Value index="1">
              0.32348594185
            </Value>
          </InformationKey>
        </DataArray>
      </Points>
      <Verts>
        <DataArray type="Int64" Name="connectivity" format="ascii" RangeMin="1e+299" RangeMax="-1e+299">
        </DataArray>
        <DataArray type="Int64" Name="offsets" format="ascii" RangeMin="1e+299" RangeMax="-1e+299">
        </DataArray>
      </Verts>
      <Lines>
        <DataArray type="Int64" Name="connectivity" format="ascii" RangeMin="1e+299" RangeMax="-1e+299">
        </DataArray>
        <DataArray type="Int64" Name="offsets" format="ascii" RangeMin="1e+299" RangeMax="-1e+299">
        </DataArray>
      </Lines>
      <Strips>
        <DataArray type="Int64" Name="connectivity" format="ascii" RangeMin="1e+299" RangeMax="-1e+299">
        </DataArray>
        <DataArray type="Int64" Name="offsets" format="ascii" RangeMin="1e+299" RangeMax="-1e+299">
        </DataArray>
      </Strips>
      <Polys>