<?xml version="1.0"?>
<VTKFile type="PolyData" version="0.1" byte_order="LittleEndian" header_type="UInt32" compressor="vtkZLibDataCompressor">
  <PolyData>
    <Piece NumberOfPoints="212" NumberOfVerts="0" NumberOfLines="0" NumberOfStrips="0" NumberOfPolys="424">
      <PointData Normals="Normals">
        <DataArray type="Float32" Name="Normals" NumberOfComponents="3" format="ascii" RangeMin="0.9999994202820506" RangeMax="1.0000008042840507">
          0.722898006439209 -0.6909549832344055 0.0003349999897181988 0.5435060262680054 -0.8183010220527649 0.18704000115394592
          0.08228100091218948 -0.9966089725494385 0.000014999999621068127 0.9564459919929504 0.00018000000272877514 0.29190900921821594
          0.9908440113067627 -0.1350110024213791 0.00022200000239536166 0.5436059832572937 -0.8182889819145203 -0.18680399656295776
          0.9565349817276001 0.0002610000083222985 -0.2916190028190613 0.539214015007019 -0.6889359951019287 0.48437198996543884
          0.2709740102291107 -0.6164500117301941 0.7392979860305786 -0.2695310115814209 -0.9628580212593079 -0.016062000766396523
          -0.3835090100765228 -0.923537015914917 -0.000014000000192027073 -0.31875500082969666 -0.9327329993247986 0.16853800415992737
          -0.11674399673938751 -0.6835190057754517 0.7205359935760498 0.5392100214958191 -0.6889410018920898 -0.4843679964542389
          0.2709740102291107 -0.6164550185203552 -0.7392950057983398 -0.26952800154685974 -0.9628589749336243 0.01603800058364868
          -0.3187499940395355 -0.932735025882721 -0.1685349941253662 -0.11673600226640701 -0.6835229992866516 -0.7205340266227722
          0.9520620107650757 0.3059050142765045 0.00017299999308306724 0.8786879777908325 0.33162999153137207 0.3434079885482788
          0.6379010081291199 0.2078379988670349 0.7415419816970825 0.878790020942688 0.3316830098628998 -0.34309500455856323
          0.6379010081291199 0.20784200727939606 -0.7415410280227661 0.21784700453281403 0.17483599483966827 0.960195004940033
          -0.8165789842605591 -0.5759850144386292 -0.03795599937438965 -0.9557949900627136 -0.2940340042114258 -0.000019999999494757503
          -0.8165789842605591 -0.575984001159668 0.037953998893499374 -0.24789999425411224 -0.05969500169157982 0.9669449925422668
          -0.6925539970397949 -0.4810509979724884 0.5375480055809021 -0.8839089870452881 -0.41996100544929504 -0.20576000213623047
          0.21784700453281403 0.17483599483966827 -0.960195004940033 -0.6925550103187561 -0.4810509979724884 -0.5375480055809021
          -0.24789799749851227 -0.05969500169157982 -0.9669449925422668 -0.8839110136032104 -0.41995900869369507 0.20576000213623047
          0.9998959898948669 -0.014392999932169914 0.000371000001905486 0.918067991733551 -0.1066410019993782 0.3818100094795227
          0.5902310013771057 0.26139700412750244 0.7637400031089783 0.9181860089302063 -0.10663499683141708 -0.38152700662612915
          0.5902330279350281 0.26139599084854126 -0.7637389898300171 0.201432004570961 0.17706499993801117 0.9633659720420837
          -0.9600620269775391 -0.07562699913978577 -0.26937100291252136 -0.9958279728889465 -0.09125400334596634 -0.00008199999865610152
          -0.9600710272789001 -0.07563500106334686 0.269336998462677 -0.14776800572872162 0.01732500083744526 0.9888700246810913
          -0.07697000354528427 -0.4980509877204895 0.8637250065803528 -0.711139976978302 -0.5526450276374817 -0.43458500504493713
          0.201432004570961 0.17706499993801117 -0.9633659720420837 -0.07697000354528427 -0.4980509877204895 -0.8637250065803528
          -0.14776800572872162 0.01732500083744526 -0.9888700246810913 -0.711139976978302 -0.5526450276374817 0.43458500504493713
          0.9950439929962158 -0.09943799674510956 0.00021699999342672527 0.9323440194129944 -0.15193499624729156 0.3281010091304779
          0.5575219988822937 -0.24391800165176392 0.7935190200805664 0.932403028011322 -0.1519239991903305 -0.3279399871826172
          0.5575219988822937 -0.24391800165176392 -0.7935190200805664 0.20679299533367157 -0.2993389964103699 0.9314680099487305
          -0.9602159857749939 -0.07239700108766556 -0.2697109878063202 -0.40837201476097107 0.026739999651908875 -0.9124240279197693
          -0.997393012046814 -0.07216700166463852 -0.00015900000289548188 -0.960241973400116 -0.0724250003695488 0.2696110010147095
          -0.4083699882030487 0.02673099935054779 0.9124249815940857 -0.0006329999887384474 -0.3007110059261322 0.9537150263786316
          0.1399489939212799 0.011611999943852425 0.9900910258293152 -0.02385300025343895 -0.9803000092506409 0.19606700539588928
          -0.14309899508953094 -0.6289129853248596 0.7641929984092712 0.027482999488711357 -0.07562699913978577 0.9967569708824158
          0.6746190190315247 0.11526799947023392 -0.7291110157966614 0.20679299533367157 -0.2993389964103699 -0.9314680099487305
          0.1399489939212799 0.011611999943852425 -0.9900910258293152 -0.0006329999887384474 -0.3007110059261322 -0.9537150263786316
          -0.14309899508953094 -0.6289129853248596 -0.7641929984092712 -0.023854000493884087 -0.980301022529602 -0.19606399536132812
          0.027482999488711357 -0.07562699913978577 -0.9967569708824158 0.6747769713401794 0.11533600091934204 0.728954017162323
          0.8554400205612183 0.5179020166397095 0.0001829999964684248 0.7174850106239319 0.6074479818344116 0.3409140110015869
          0.5894280076026917 -0.233024001121521 0.7734820246696472 0.717523992061615 0.6074789762496948 -0.3407770097255707
          0.5894299745559692 -0.23301799595355988 -0.7734820246696472 0.169856995344162 -0.33762601017951965 0.9258279800415039
          -0.5217729806900024 0.7865700125694275 -0.33024299144744873 -0.24208800494670868 -0.0013279999839141965 -0.9702529907226562
          -0.685509979724884 0.7280629873275757 -0.0002280000044265762 -0.5218219757080078 0.7865939736366272 0.33010900020599365
          -0.24208499491214752 -0.0013389999512583017 0.9702540040016174 -0.09112600237131119 -0.21458899974822998 0.9724439978599548
          -0.18038499355316162 0.23606300354003906 0.9548479914665222 -0.1273459941148758 0.7001749873161316 0.7025229930877686
          -0.1608079969882965 -0.5640419721603394 0.8099370002746582 -0.2917639911174774 -0.5762860178947449 0.763392984867096
          0.47232601046562195 -0.15166400372982025 0.8682780265808105 0.8278380036354065 -0.33352699875831604 0.45104798674583435
          0.07091899961233139 0.2137639969587326 0.9743080139160156 -0.49108999967575073 -0.6218299865722656 0.6100469827651978
          0.9980430006980896 -0.06252600252628326 -0.00020700000459328294 0.7202849984169006 -0.5158839821815491 -0.4637390077114105
          -0.5203189849853516 0.8539720177650452 0.00005900000178371556 -0.4467889964580536 0.5284799933433533 -0.7218649983406067
          0.169856995344162 -0.33762601017951965 -0.9258279800415039 -0.18038499355316162 0.23606300354003906 -0.9548479914665222
          -0.09112600237131119 -0.21458899974822998 -0.9724439978599548 -0.1273459941148758 0.7001749873161316 -0.7025229930877686
          -0.29175999760627747 -0.5762889981269836 -0.7633919715881348 -0.16080999374389648 -0.5640439987182617 -0.8099349737167358
          0.47232601046562195 -0.15166400372982025 -0.8682780265808105 0.8278419971466064 -0.33351999521255493 -0.4510459899902344
          -0.49108999967575073 -0.6218299865722656 -0.6100469827651978 0.07091899961233139 0.2137639969587326 -0.9743080139160156
          0.720287024974823 -0.515923023223877 0.4636920094490051 -0.4467029869556427 0.52851802110672 0.7218899726867676
          0.03215799853205681 0.9994829893112183 0 0.4608120024204254 0.712414026260376 0.5292620062828064
          0.2495969980955124 0.4986940026283264 0.830062985420227 0.4608049988746643 0.7124260067939758 -0.5292530059814453
          0.24959999322891235 0.4987039864063263 -0.8300570249557495 -0.11891800165176392 0.4604099988937378 0.879705011844635
          -0.2196040004491806 0.9700599908828735 -0.10371799767017365 -0.0760900005698204 0.9340400099754333 0.3489690124988556
          -0.6761040091514587 0.5412669777870178 -0.4999139904975891 -0.1450369954109192 0.9127029776573181 0.38201799988746643
          -0.0760900005698204 0.9340400099754333 -0.3489690124988556 -0.2196040004491806 0.9700599908828735 0.10371600091457367
          -0.6761040091514587 0.541263997554779 0.4999159872531891 -0.14502699673175812 0.9127079844474792 -0.38201001286506653
          0.2680880129337311 0.614853024482727 0.7416769862174988 0.2673630118370056 0.6550949811935425 0.7066590189933777
          0.4773220121860504 0.3244360089302063 0.8166429996490479 0.2728649973869324 -0.6736369729042053 0.6868469715118408
          0.5245450139045715 0.22646300494670868 0.8207119703292847 -0.8136889934539795 0.279790997505188 0.5095369815826416
          -0.11395200341939926 0.1362839937210083 0.9840940237045288 -0.7223659753799438 -0.6197559833526611 -0.3067399859428406
          -0.9107080101966858 0.2731949985027313 -0.30979999899864197 0.9101979732513428 -0.27122798562049866 0.31300899386405945
          -0.08881299942731857 0.23479700088500977 0.9679790139198303 0.10366299748420715 0.00023999999393709004 0.994612991809845
          -0.8297269940376282 -0.4721750020980835 0.29766398668289185 -0.9664270281791687 0.15839800238609314 -0.20231099426746368
          0.05326399952173233 -0.9985799789428711 -0.00011999999696854502 -0.04593300074338913 -0.9192249774932861 -0.3910450041294098
          -0.8648200035095215 0.5020819902420044 0.00020799999765586108 -0.5531330108642578 0.7578690052032471 0.34594500064849854
          -0.7813209891319275 0.6018909811973572 0.16512000560760498 -0.9087949991226196 0.35529500246047974 -0.21876099705696106
          -0.5530120134353638 0.7580400109291077 -0.34576499462127686 -0.7812380194664001 0.602046012878418 -0.16494999825954437
          -0.9087830185890198 0.35528600215911865 0.2188269942998886 -0.793819010257721 0.3009049892425537 -0.5284960269927979
          -0.11891300231218338 0.4604170024394989 -0.8797019720077515 0.2680880129337311 0.614853024482727 -0.7416769862174988
          0.2673630118370056 0.6550949811935425 -0.7066590189933777 -0.11394699662923813 0.13628999888896942 -0.9840940237045288
          -0.8136889934539795 0.279789000749588 -0.5095379948616028 0.2728649973869324 -0.6736389994621277 -0.686843991279602
          -0.7223640084266663 -0.6197599768638611 0.3067399859428406 -0.9107130169868469 0.2731890082359314 0.3097890019416809
          0.4773220121860504 0.3244360089302063 -0.8166429996490479 0.5245450139045715 0.22646300494670868 -0.8207119703292847
          0.9102029800415039 -0.27122101187705994 -0.31300100684165955 -0.08881500363349915 0.23479999601840973 -0.9679780006408691
          -0.8297269940376282 -0.4721750020980835 -0.29766398668289185 0.10366299748420715 0.00023999999393709004 -0.994612991809845
          -0.9664270281791687 0.15839800238609314 0.20231099426746368 -0.04581199958920479 -0.9192450046539307 0.3910120129585266
          -0.7938200235366821 0.3009069859981537 0.5284929871559143 -0.8525819778442383 0.39766401052474976 -0.3390670120716095
          -0.6503599882125854 0.09279000014066696 -0.7539370059967041 -0.8525819778442383 0.39766401052474976 0.3390670120716095
          -0.6503599882125854 0.09279000014066696 0.7539370059967041 -0.514523983001709 -0.3264540135860443 0.7929019927978516
          -0.57464599609375 -0.7713320255279541 0.27354899048805237 -0.8789499998092651 0.19195400178432465 0.43657800555229187
          -0.8153669834136963 -0.40975499153137207 0.4089969992637634 -0.6721569895744324 -0.6122660040855408 0.4163359999656677
          -0.8238270282745361 0.5053830146789551 0.25670599937438965 0.4195629954338074 -0.8719149827957153 0.25244998931884766
          0.2405640035867691 -0.9145749807357788 -0.32508599758148193 0.7885100245475769 -0.6150220036506653 -0.00008199999865610152
          0.2405329942703247 -0.9146280288696289 0.32495999336242676 -0.7478690147399902 0.41883501410484314 0.5150430202484131
          -0.8654789924621582 0.500944972038269 -0.0006489999941550195 -0.8050640225410461 0.1379060000181198 0.5769349932670593
          -0.7479289770126343 0.41882699728012085 -0.5149620175361633 -0.8048509955406189 0.13825500011444092 -0.577148973941803
          -0.8238279819488525 0.5053809881210327 -0.25670701265335083 -0.8153700232505798 -0.4097500145435333 -0.40899398922920227
          -0.8789529800415039 0.1919499933719635 -0.4365749955177307 -0.6721550226211548 -0.6122699975967407 -0.41633298993110657
          -0.514523983001709 -0.3264540135860443 -0.7929019927978516 -0.57464599609375 -0.7713320255279541 -0.27354899048805237
          0.4195590019226074 -0.8719170093536377 -0.25245100259780884 -0.676613986492157 0.09619499742984772 0.7300270199775696
          -0.01948400028049946 -0.954364001750946 0.2980090081691742 -0.026455000042915344 -0.9652040004730225 -0.2601569890975952
          0.7202119827270508 -0.6937540173530579 0.00003300000025774352 -0.02645700052380562 -0.9652050137519836 0.26015299558639526
          -0.019516000524163246 -0.9543499946594238 -0.29805201292037964 -0.7308729887008667 0.6825129985809326 -0.0012529999949038029
          -0.675728976726532 0.09592799842357635 -0.7308819890022278 -0.10180699825286865 0.20751500129699707 0.9729200005531311
          -0.059811998158693314 -0.007914000190794468 0.9981780052185059 0.6111540198326111 -0.6763589978218079 0.41113200783729553
          0.18445099890232086 -0.9828420281410217 -0.00043899999582208693 0.6111509799957275 -0.6763560175895691 -0.4111410081386566
          -0.05984099954366684 -0.007898000068962574 -0.9981769919395447 -0.8330109715461731 0.06564100086688995 0.5493490099906921
          -0.9831929802894592 -0.18256500363349915 -0.0009560000034980476 -0.10107800364494324 0.2067510038614273 -0.9731580018997192
          -0.8320479989051819 0.06524399667978287 -0.5508540272712708 -0.2827860116958618 -0.6707550287246704 0.6856529712677002
          -0.5946279764175415 -0.8040000200271606 -0.0008800000068731606 -0.28206101059913635 -0.6704959869384766 -0.6862040162086487
          <InformationKey name="L2_NORM_RANGE" location="vtkDataArray" length="2">
            <Value index="0">
              0.99999942028
            </Value>
            <Value index="1">
              1.0000008043
            </Value>
          </InformationKey>
        </DataArray>
      </PointData>
      <CellData>
      </CellData>
      <Points>
        <DataArray type="Float32" Name="Points" NumberOfComponents="3" format="ascii" RangeMin="0.20710912275004686" RangeMax="0.2500605317233977">
          -0.060479000210762024 0.19808200001716614 0.00002300000051036477 -0.06120700016617775 0.19832700490951538 0.0076430002227425575
          -0.07397499680519104 0.19749599695205688 0.000003000000106112566 -0.06011499837040901 0.20200300216674805 0.00916799996048212
          -0.059728000313043594 0.19951599836349487 0.00002499999936844688 -0.06120700016617775 0.19832700490951538 -0.0076430002227425575
          -0.06011499837040901 0.20200300216674805 -0.00916799996048212 -0.06530299782752991 0.19865800440311432 0.015572000294923782
          -0.07184600085020065 0.19859099388122559 0.019429000094532967 -0.08600199967622757 0.1962279975414276 0.004596000071614981
          -0.08614499866962433 0.19648000597953796 0.000003000000106112566 -0.08637399971485138 0.19644099473953247 0.013527999632060528
          -0.08217299729585648 0.19784100353717804 0.019533000886440277 -0.06530299782752991 0.19865800440311432 -0.015572000294923782
          -0.07184600085020065 0.19859099388122559 -0.019429000094532967 -0.08600199967622757 0.1962279975414276 -0.004596000071614981
          -0.08637399971485138 0.19644099473953247 -0.013527999632060528 -0.08217299729585648 0.19784100353717804 -0.019533000886440277
          -0.06059499830007553 0.20364999771118164 0.00002499999936844688 -0.06191200017929077 0.20403200387954712 0.009816000238060951
          -0.06525299698114395 0.20258499681949615 0.01654299907386303 -0.06191200017929077 0.20403200387954712 -0.009816000238060951
          -0.06525299698114395 0.20258499681949615 -0.01654299907386303 -0.07313299924135208 0.20299899578094482 0.020093999803066254
          -0.08991499990224838 0.19916999340057373 0.004730000160634518 -0.0898749977350235 0.1990559995174408 0.000003000000106112566
          -0.08991499990224838 0.19916999340057373 -0.004730000160634518 -0.0836699977517128 0.20261399447917938 0.020237000659108162
          -0.08928100019693375 0.1968879997730255 0.015192000195384026 -0.0909079983830452 0.200437992811203 0.008988999761641026
          -0.07313299924135208 0.20299899578094482 -0.020093999803066254 -0.08928100019693375 0.1968879997730255 -0.015192000195384026
          -0.0836699977517128 0.20261399447917938 -0.020237000659108162 -0.0909079983830452 0.200437992811203 -0.008988999761641026
          -0.06080799922347069 0.21236099302768707 0.000028000000384054147 -0.06213799864053726 0.21137799322605133 0.009472999721765518
          -0.06722000241279602 0.2051129937171936 0.016131000593304634 -0.06213799864053726 0.21137799322605133 -0.009472999721765518
          -0.06722000241279602 0.2051129937171936 -0.016131000593304634 -0.07343199849128723 0.20678800344467163 0.018279999494552612
          -0.09002800285816193 0.2056729942560196 0.0060640000738203526 -0.08954299986362457 0.205703005194664 0.000004999999873689376
          -0.09002800285816193 0.2056729942560196 -0.0060640000738203526 -0.08373700082302094 0.20593099296092987 0.01915300078690052
          -0.08882100135087967 0.20447799563407898 0.0181099995970726 -0.09187400341033936 0.20616500079631805 0.009274999611079693
          -0.07343199849128723 0.20678800344467163 -0.018279999494552612 -0.08882100135087967 0.20447799563407898 -0.0181099995970726
          -0.08373700082302094 0.20593099296092987 -0.01915300078690052 -0.09187400341033936 0.20616500079631805 -0.009274999611079693
          -0.060444001108407974 0.21581199765205383 0.000029000000722589903 -0.06103400141000748 0.21546100080013275 0.010479000397026539
          -0.06789900362491608 0.21183599531650543 0.01675100065767765 -0.06103400141000748 0.21546100080013275 -0.010479000397026539
          -0.06789900362491608 0.21183599531650543 -0.01675100065767765 -0.07272300124168396 0.2119469940662384 0.01836399920284748
          -0.09160999953746796 0.21459199488162994 0.006266999989748001 -0.09356699883937836 0.21497200429439545 0.009697999805212021
          -0.09090100228786469 0.21468499302864075 0.000007000000096013537 -0.09160999953746796 0.21459199488162994 -0.006266999989748001
          -0.09356699883937836 0.21497200429439545 -0.009697999805212021 -0.08266200125217438 0.21228399872779846 0.019291000440716743
          -0.08737099915742874 0.2131509929895401 0.019665999338030815 -0.09478200227022171 0.20409999787807465 0.016315000131726265
          -0.09211599826812744 0.20657099783420563 0.020003000274300575 -0.09375900030136108 0.21300800144672394 0.023917999118566513
          -0.1001409962773323 0.20769399404525757 0.0035600000992417336 -0.07272300124168396 0.2119469940662384 -0.01836399920284748
          -0.08737099915742874 0.2131509929895401 -0.019665999338030815 -0.08266200125217438 0.21228399872779846 -0.019291000440716743
          -0.09211599826812744 0.20657099783420563 -0.020003000274300575 -0.09478200227022171 0.20409999787807465 -0.016315000131726265
          -0.09375900030136108 0.21300800144672394 -0.023917999118566513 -0.1001409962773323 0.20769399404525757 -0.0035600000992417336
          -0.06075900048017502 0.21966899931430817 0.000029000000722589903 -0.06156900152564049 0.21945999562740326 0.010672000236809254
          -0.06613299995660782 0.21511900424957275 0.01773099973797798 -0.06156900152564049 0.21945999562740326 -0.010672000236809254
          -0.06613299995660782 0.21511900424957275 -0.01773099973797798 -0.07213500142097473 0.21466700732707977 0.020305000245571136
          -0.09240400046110153 0.22089500725269318 0.007988999597728252 -0.09308300167322159 0.21939800679683685 0.010413000360131264
          -0.09074199944734573 0.22009199857711792 0.000009000000318337698 -0.09240400046110153 0.22089500725269318 -0.007988999597728252
          -0.09308300167322159 0.21939800679683685 -0.010413000360131264 -0.08066000044345856 0.21601100265979767 0.02128399908542633
          -0.08852100372314453 0.2169560045003891 0.01900400035083294 -0.09474699944257736 0.21804599463939667 0.01904899999499321
          -0.10341999679803848 0.2108280062675476 0.022079000249505043 -0.10148099809885025 0.20720599591732025 0.016409000381827354
          -0.09841399639844894 0.20195600390434265 0.02361699938774109 -0.09662199765443802 0.20176400244235992 0.01005600020289421
          -0.09816800057888031 0.2099519968032837 0.022714000195264816 -0.09952899813652039 0.2038159966468811 0.020648999139666557
          -0.1005140021443367 0.20292800664901733 0.000003000000106112566 -0.1032710000872612 0.19237500429153442 0.004883000161498785
          -0.10857400298118591 0.20857399702072144 0.000004999999873689376 -0.1025800034403801 0.21284200251102448 0.007368999999016523
          -0.07213500142097473 0.21466700732707977 -0.020305000245571136 -0.08852100372314453 0.2169560045003891 -0.01900400035083294
          -0.08066000044345856 0.21601100265979767 -0.02128399908542633 -0.09474699944257736 0.21804599463939667 -0.01904899999499321
          -0.10148099809885025 0.20720599591732025 -0.016409000381827354 -0.10341999679803848 0.2108280062675476 -0.022079000249505043
          -0.09841399639844894 0.20195600390434265 -0.02361699938774109 -0.09662199765443802 0.20176400244235992 -0.01005600020289421
          -0.09952899813652039 0.2038159966468811 -0.020648999139666557 -0.09816800057888031 0.2099519968032837 -0.022714000195264816
          -0.1032710000872612 0.19237500429153442 -0.004883000161498785 -0.1025800034403801 0.21284200251102448 -0.007368999999016523
          -0.07575099915266037 0.21987999975681305 0.000009000000318337698 -0.06648799777030945 0.21930000185966492 0.017976000905036926
          -0.07332699745893478 0.2194879949092865 0.021285999566316605 -0.06648799777030945 0.21930000185966492 -0.017976000905036926
          -0.07332699745893478 0.2194879949092865 -0.021285999566316605 -0.0821480005979538 0.2191449999809265 0.02141599915921688
          -0.10185399651527405 0.22077399492263794 0.015275999903678894 -0.09452900290489197 0.21962200105190277 0.013465999625623226
          -0.10150499641895294 0.2184540033340454 0.009607999585568905 -0.09052599966526031 0.22046500444412231 0.01634399965405464
          -0.09452900290489197 0.21962200105190277 -0.013465999625623226 -0.10185399651527405 0.22077399492263794 -0.015275999903678894
          -0.10150499641895294 0.2184540033340454 -0.009607999585568905 -0.09052599966526031 0.22046500444412231 -0.01634399965405464
          -0.10065499693155289 0.21461500227451324 0.020274000242352486 -0.09983900189399719 0.2173209935426712 0.017562000080943108
          -0.11456599831581116 0.21977700293064117 0.03321100026369095 -0.10862000286579132 0.21199700236320496 0.0201370008289814
          -0.10356699675321579 0.21589000523090363 0.020312000066041946 -0.11205299943685532 0.19796499609947205 0.012070000171661377
          -0.10785599797964096 0.1994210034608841 0.014775999821722507 -0.11473999917507172 0.21134600043296814 0.024181999266147614
          -0.10682299733161926 0.20975300669670105 0.012105000205338001 -0.09704499691724777 0.19997699558734894 0.011455999687314034
          -0.11171499639749527 0.1945039927959442 0.01627499982714653 -0.10193300247192383 0.21014000475406647 0.025123000144958496
          -0.10340499877929688 0.20821399986743927 0.02291099913418293 -0.10473199933767319 0.21426700055599213 0.02323400042951107
          -0.1061059981584549 0.19670100510120392 0.000003000000106112566 -0.10295800119638443 0.19150599837303162 0.006399000063538551
          -0.11837100237607956 0.19747699797153473 0.000003999999989900971 -0.10945700109004974 0.20550300180912018 0.004732999950647354
          -0.1056319996714592 0.20469200611114502 0.007925000041723251 -0.10579100251197815 0.2083979994058609 0.009933000430464745
          -0.10945700109004974 0.20550300180912018 -0.004732999950647354 -0.1056319996714592 0.20469200611114502 -0.007925000041723251
          -0.10579100251197815 0.2083979994058609 -0.009933000430464745 -0.10366000235080719 0.2132599949836731 0.010838000103831291
          -0.0821480005979538 0.2191449999809265 -0.02141599915921688 -0.10065499693155289 0.21461500227451324 -0.020274000242352486
          -0.09983900189399719 0.2173209935426712 -0.017562000080943108 -0.10785599797964096 0.1994210034608841 -0.014775999821722507
          -0.11205299943685532 0.19796499609947205 -0.012070000171661377 -0.10862000286579132 0.21199700236320496 -0.0201370008289814
          -0.11473999917507172 0.21134600043296814 -0.024181999266147614 -0.10682299733161926 0.20975300669670105 -0.012105000205338001
          -0.11456599831581116 0.21977700293064117 -0.03321100026369095 -0.10356699675321579 0.21589000523090363 -0.020312000066041946
          -0.09704499691724777 0.19997699558734894 -0.011455999687314034 -0.11171499639749527 0.1945039927959442 -0.01627499982714653
          -0.10340499877929688 0.20821399986743927 -0.02291099913418293 -0.10193300247192383 0.21014000475406647 -0.025123000144958496
          -0.10473199933767319 0.21426700055599213 -0.02323400042951107 -0.10295800119638443 0.19150599837303162 -0.006399000063538551
          -0.10366000235080719 0.2132599949836731 -0.010838000103831291 -0.11986099928617477 0.216949000954628 0.027837000787258148
          -0.1075659990310669 0.21471400558948517 0.013292999938130379 -0.11986099928617477 0.216949000954628 -0.027837000787258148
          -0.1075659990310669 0.21471400558948517 -0.013292999938130379 -0.11802499741315842 0.21573300659656525 0.03679800033569336
          -0.11966700106859207 0.21373599767684937 0.02859400026500225 -0.11427400261163712 0.19550000131130219 0.009797999635338783
          -0.11426399648189545 0.19165199995040894 0.00927099958062172 -0.11137700080871582 0.18888500332832336 0.016042999923229218
          -0.11200200021266937 0.19973500072956085 0.008449999615550041 -0.10399899631738663 0.1895570009946823 0.01271700020879507
          -0.10542500019073486 0.1941159963607788 0.00508899986743927 -0.10842200368642807 0.1921979933977127 9.999999974752427e-7
          -0.10542500019073486 0.1941159963607788 -0.00508899986743927 -0.11696100234985352 0.19964300096035004 0.0039969999343156815
          -0.12460000067949295 0.18681299686431885 -0.000014999999621068127 -0.11646399646997452 0.19583800435066223 0.003889000043272972
          -0.11696100234985352 0.19964300096035004 -0.0039969999343156815 -0.11646399646997452 0.19583800435066223 -0.003889000043272972
          -0.11200200021266937 0.19973500072956085 -0.008449999615550041 -0.11426399648189545 0.19165199995040894 -0.00927099958062172
          -0.11427400261163712 0.19550000131130219 -0.009797999635338783 -0.11137700080871582 0.18888500332832336 -0.016042999923229218
          -0.11802499741315842 0.21573300659656525 -0.03679800033569336 -0.11966700106859207 0.21373599767684937 -0.02859400026500225
          -0.10399899631738663 0.1895570009946823 -0.01271700020879507 -0.11646799743175507 0.19218400120735168 0.004056999925523996
          -0.1154400035738945 0.19040699303150177 0.004755999892950058 -0.1104229986667633 0.18940599262714386 0.0072929998859763145
          -0.1150830015540123 0.18622800707817078 0 -0.1104229986667633 0.18940599262714386 -0.0072929998859763145
          -0.1154400035738945 0.19040699303150177 -0.004755999892950058 -0.13078999519348145 0.18017800152301788 -0.000018999999156221747
          -0.11646799743175507 0.19218400120735168 -0.004056999925523996 -0.123198002576828 0.18014200031757355 0.004412999842315912
          -0.1177700012922287 0.18402700126171112 0.004430000204592943 -0.12345200031995773 0.17263799905776978 0.00343999988399446
          -0.12517200410366058 0.17205600440502167 -0.000003000000106112566 -0.12345200031995773 0.17263799905776978 -0.00343999988399446
          -0.1177700012922287 0.18402700126171112 -0.004430000204592943 -0.13199900090694427 0.1771869957447052 0.004461999982595444
          -0.1327809989452362 0.1759600043296814 -0.00002099999983329326 -0.123198002576828 0.18014200031757355 -0.004412999842315912
          -0.13199900090694427 0.1771869957447052 -0.004461999982595444 -0.1301330029964447 0.1742289960384369 0.00519599998369813
          -0.12908799946308136 0.17267900705337524 -0.000019999999494757503 -0.1301330029964447 0.1742289960384369 -0.00519599998369813
          <InformationKey name="L2_NORM_RANGE" location="vtkDataArray" length="2">
            <Value index="0">
              0.20710912275
            </Value>
            <Value index="1">
              0.25006053172
            </Value>
          </InformationKey>
        </DataArray>
      </Points>
      <Verts>
        <DataArray type="Int64" Name="connectivity" format="ascii" RangeMin="1e+299" RangeMax="-1e+299">
        </DataArray>
        <DataArray type="Int64" Name="offsets" format="ascii" RangeMin="1e+299" RangeMax="-1e+299">
        </DataArray>
      </Verts>
      <Lines>
        <DataArray type="Int64" Name="connectivity" format="ascii" RangeMin="1e+299" RangeMax="-1e+299">
        </DataArray>
        <DataArray type="Int64" Name="offsets" format="ascii" RangeMin="1e+299" RangeMax="-1e+299">
        </DataArray>
      </Lines>
      <Strips>
        <DataArray type="Int64" Name="connectivity" format="ascii" RangeMin="1e+299" RangeMax="-1e+299">
        </DataArray>
        <DataArray type="Int64" Name="offsets" format="ascii" RangeMin="1e+299" RangeMax="-1e+299">