<?xml version="1.0"?>
<VTKFile type="PolyData" version="0.1" byte_order="LittleEndian" header_type="UInt32" compressor="vtkZLibDataCompressor">
  <PolyData>
    <Piece NumberOfPoints="212" NumberOfVerts="0" NumberOfLines="0" NumberOfStrips="0" NumberOfPolys="424">
      <PointData Normals="Normals">
        <DataArray type="Float32" Name="Normals" NumberOfComponents="3" format="ascii" RangeMin="0.9999993646537935" RangeMax="1.0000006555284457">
          0.4635539948940277 -0.8860689997673035 0.00032900000223889947 0.23856399953365326 -0.9532740116119385 0.18535299599170685
          -0.28376200795173645 -0.9588950276374817 0.000014999999621068127 0.9097999930381775 -0.3101060092449188 0.275858998298645
          0.8970860242843628 -0.4418550133705139 0.00021399999968707561 0.23866400122642517 -0.9532939791679382 -0.18512199819087982
          0.9098979830741882 -0.3100599944591522 -0.27558600902557373 0.285427987575531 -0.8293830156326294 0.4802649915218353
          0.04607100039720535 -0.6715270280838013 0.7395470142364502 -0.604515016078949 -0.7964410185813904 -0.015576999634504318
          -0.6986250281333923 -0.7154880166053772 -0.000014000000192027073 -0.6380730271339417 -0.7521340250968933 0.16479599475860596
          -0.36012300848960876 -0.6009719967842102 0.7135429978370667 0.28542599081993103 -0.829384982585907 -0.48026201128959656
          0.04607599973678589 -0.6715250015258789 -0.7395480275154114 -0.6045129895210266 -0.796442985534668 0.015550999902188778
          -0.6380699872970581 -0.7521370053291321 -0.164792001247406 -0.3601189851760864 -0.6009699702262878 -0.7135469913482666
          0.9994590282440186 -0.032885998487472534 0.0001610000035725534 0.9466530084609985 0.012532999739050865 0.32201001048088074
          0.695248007774353 -0.023726999759674072 0.7183780074119568 0.9467509984970093 0.012539999559521675 -0.32172200083732605
          0.695248007774353 -0.02373499982059002 -0.7183780074119568 0.2821109890937805 0.08873199671506882 0.955269992351532
          -0.9684399962425232 -0.24675899744033813 -0.035130999982357025 -0.9991329908370972 0.04163099825382233 -0.000018999999156221747
          -0.9684399962425232 -0.24675999581813812 0.03512699902057648 -0.2627260088920593 0.02549700066447258 0.9645339846611023
          -0.8259879946708679 -0.2185409963130951 0.519599974155426 -0.976777970790863 -0.0919409990310669 -0.19352500140666962
          0.28210899233818054 0.08873499929904938 -0.955269992351532 -0.8259879946708679 -0.2185409963130951 -0.5195990204811096
          -0.2627260088920593 0.025490999221801758 -0.9645339846611023 -0.976777970790863 -0.0919400006532669 0.1935259997844696
          0.9441379904747009 -0.32955101132392883 0.0003480000013951212 0.8452889919281006 -0.3906950056552887 0.3644770085811615
          0.6701970100402832 0.04356599971652031 0.7409039735794067 0.8453919887542725 -0.390720009803772 -0.3642120063304901
          0.6701930165290833 0.04356300085783005 -0.7409070134162903 0.2678360044956207 0.09719300270080566 0.958549976348877
          -0.8899499773979187 0.3716360032558441 -0.26434099674224854 -0.8915770053863525 0.4528689980506897 -0.00007400000322377309
          -0.889959990978241 0.37163200974464417 0.2643119990825653 -0.14016500115394592 0.06419400125741959 0.9880449771881104
          -0.24357900023460388 -0.49025699496269226 0.8368499875068665 -0.8529279828071594 -0.2758210003376007 -0.44321098923683167
          0.26783400774002075 0.09719300270080566 -0.958549976348877 -0.24358199536800385 -0.4902600049972534 -0.8368470072746277
          -0.14016999304294586 0.06419199705123901 -0.988044023513794 -0.8529289960861206 -0.27582401037216187 0.4432080090045929
          0.914122998714447 -0.40543800592422485 0.00020399999630171806 0.8413439989089966 -0.4390999972820282 0.31516900658607483
          0.4658859968185425 -0.4116489887237549 0.7832599878311157 0.8413969874382019 -0.4391059875488281 -0.31501901149749756
          0.4658840000629425 -0.4116480052471161 -0.7832610011100769 0.09925299882888794 -0.3513079881668091 0.9309840202331543
          -0.8781269788742065 0.40247800946235657 -0.2586579918861389 -0.33340299129486084 0.27496200799942017 -0.9017980098724365
          -0.9316710233688354 0.3633039891719818 -0.00014800000644754618 -0.8781579732894897 0.4024670124053955 0.25857099890708923
          -0.33340200781822205 0.27495500445365906 0.9017999768257141 -0.11182399839162827 -0.28200700879096985 0.9528729915618896
          0.2306240051984787 0.01570099964737892 0.9729160070419312 -0.4687710106372833 -0.871845006942749 0.14191600680351257
          -0.5585759878158569 -0.41831299662590027 0.7162449955940247 0.034745000302791595 -0.024869000539183617 0.9990869760513306
          0.6802520155906677 -0.14916199445724487 -0.7176409959793091 0.09925200045108795 -0.35131600499153137 -0.9309809803962708
          0.23062600195407867 0.015698999166488647 -0.9729160070419312 -0.11182499676942825 -0.2820050120353699 -0.9528740048408508
          -0.5585659742355347 -0.41832399368286133 -0.716247022151947 -0.4687710106372833 -0.871845006942749 -0.1419149935245514
          0.03474999964237213 -0.024876000359654427 -0.9990860223770142 0.6804249882698059 -0.14915600419044495 0.717477023601532
          0.9791839718818665 0.20297500491142273 0.00016900000628083944 0.8907170295715332 0.3252730071544647 0.3175230026245117
          0.4983539879322052 -0.41370001435279846 0.7619029879570007 0.8907589912414551 0.32528600096702576 -0.3173919916152954
          0.4983519911766052 -0.4137069880962372 -0.761900007724762 0.04724999889731407 -0.3749980032444 0.9258210062980652
          -0.21394899487495422 0.9122290015220642 -0.34937599301338196 -0.27003100514411926 0.08161500096321106 -0.9593870043754578
          -0.4383009970188141 0.8988280296325684 -0.00022699999681208283 -0.21398000419139862 0.9122740030288696 0.3492409884929657
          -0.270022988319397 0.08161299675703049 0.9593889713287354 -0.20882700383663177 -0.09371999651193619 0.9734519720077515
          -0.19616100192070007 0.35692399740219116 0.9133049845695496 0.23860499262809753 0.6730980277061462 0.7000049948692322
          -0.3645319938659668 -0.4663110077381134 0.806020975112915 -0.5301290154457092 -0.4054909944534302 0.7446749806404114
          0.4146290123462677 -0.2809099853038788 0.8655470013618469 0.682220995426178 -0.5662789940834045 0.4624969959259033
          0.21265099942684174 0.18236799538135529 0.9599589705467224 -0.6586419939994812 -0.33169400691986084 0.6754040122032166
          0.919277012348175 -0.39361101388931274 -0.00022000000171829015 0.5273879766464233 -0.7144439816474915 -0.45981699228286743
          -0.21374200284481049 0.9768900275230408 0.00004999999873689376 -0.24901099503040314 0.6255760192871094 -0.7393559813499451
          0.04724299907684326 -0.3750010132789612 -0.925819993019104 -0.196151003241539 0.3569279909133911 -0.9133059978485107
          -0.20882000029087067 -0.09371300041675568 -0.9734539985656738 0.23860600590705872 0.6731029748916626 -0.699999988079071
          -0.5301259756088257 -0.4054949879646301 -0.744674026966095 -0.3646239936351776 -0.4655170142650604 -0.8064389824867249
          0.4146080017089844 -0.28091898560523987 -0.8655539751052856 0.6822230219841003 -0.5662699937820435 -0.46250399947166443
          -0.6586459875106812 -0.3316980004310608 -0.6753969788551331 0.21265800297260284 0.18236300349235535 -0.9599589705467224
          0.5273669958114624 -0.7145000100135803 0.45975300669670105 -0.24891799688339233 0.6255819797515869 0.7393829822540283
          0.365539014339447 0.9307960271835327 -0.000003000000106112566 0.7007840275764465 0.5022600293159485 0.5065929889678955
          0.431331992149353 0.3776960074901581 0.8193280100822449 0.7007830142974854 0.5022690296173096 -0.5065860152244568
          0.43132999539375305 0.3777010142803192 -0.8193269968032837 -0.08310600370168686 0.4731450080871582 0.8770560026168823
          0.18585699796676636 0.9743340015411377 -0.12700699269771576 0.32286399602890015 0.8793849945068359 0.3499169945716858
          -0.4207099974155426 0.7405959963798523 -0.5239459872245789 0.10541699826717377 0.9238460063934326 0.36796098947525024
          0.32286399602890015 0.8793849945068359 -0.349916011095047 0.1860249936580658 0.9742709994316101 0.12724199891090393
          -0.4207099974155426 0.7405959963798523 0.5239459872245789 0.10543599724769592 0.9238479733467102 -0.36795100569725037
          0.5112379789352417 0.4533250033855438 0.7301589846611023 0.572314977645874 0.46884000301361084 0.6727889776229858
          0.6328150033950806 0.12696599960327148 0.7638220191001892 -0.11694099754095078 -0.7908620238304138 0.6007180213928223
          0.6096749901771545 0.015652000904083252 0.7924969792366028 -0.7140870094299316 0.5254960060119629 0.4625299870967865
          -0.1215749979019165 0.2242169976234436 0.9669259786605835 -0.908748984336853 -0.33082500100135803 -0.25442200899124146
          -0.7999749779701233 0.5234529972076416 -0.2933200001716614 0.7864120006561279 -0.5356330275535583 0.3076559901237488
          -0.00994499959051609 0.2517069876194 0.967752993106842 0.1084349974989891 -0.04032199829816818 0.9932860136032104
          -0.9489610195159912 -0.15409299731254578 0.27518901228904724 -0.8695769906044006 0.45055198669433594 -0.20208700001239777
          -0.2662779986858368 -0.9638959765434265 -0.00011999999696854502 -0.37103399634361267 -0.8441280126571655 -0.38701701164245605
          -0.6862959861755371 0.727321982383728 0.00019500000053085387 -0.3199000060558319 0.8786460161209106 0.35446399450302124
          -0.5781019926071167 0.7961090207099915 0.1789100021123886 -0.7553719878196716 0.6198220252990723 -0.2126840054988861
          -0.31972000002861023 0.8787829875946045 -0.3542869985103607 -0.5779740214347839 0.7962380051612854 -0.1787489950656891
          -0.7553640007972717 0.6198099851608276 0.21274499595165253 -0.6742770075798035 0.5249950289726257 -0.5193560123443604
          -0.08310099691152573 0.47315001487731934 -0.87705397605896 0.511231005191803 0.4533340036869049 -0.7301589846611023
          0.571931004524231 0.4692550003528595 -0.6728259921073914 -0.12156999856233597 0.22422300279140472 -0.9669250249862671
          -0.7140859961509705 0.5254909992218018 -0.4625369906425476 -0.11529699712991714 -0.7891299724578857 -0.6033089756965637
          -0.9080229997634888 -0.3332839906215668 0.2538039982318878 -0.7999820113182068 0.5234490036964417 0.29330798983573914
          0.6314949989318848 0.12922999262809753 -0.7645350098609924 0.6091799736022949 0.017037000507116318 -0.7928490042686462
          0.7864090204238892 -0.5356349945068359 -0.3076620101928711 -0.009943000040948391 0.25171399116516113 -0.9677510261535645
          -0.9489700198173523 -0.15408800542354584 -0.2751609981060028 0.10842999815940857 -0.04032599925994873 -0.9932860136032104
          -0.8695669770240784 0.45055800676345825 0.20211799442768097 -0.3709290027618408 -0.8441929817199707 0.3869769871234894
          -0.674278974533081 0.5249950289726257 0.519353985786438 -0.6712290048599243 0.6758270263671875 -0.30448099970817566
          -0.598891019821167 0.3435930013656616 -0.723376989364624 -0.6715379953384399 0.6746079921722412 0.3064970076084137
          -0.5991449952125549 0.3411639928817749 0.7243160009384155 -0.6647099852561951 -0.11160200089216232 0.7387189865112305
          -0.8570520281791687 -0.49990999698638916 0.12470900267362595 -0.7837399840354919 0.4601210057735443 0.41718199849128723
          -0.9173309803009033 -0.10350699722766876 0.3844349980354309 -0.8347569704055786 -0.3646939992904663 0.4125269949436188
          -0.651777982711792 0.7153139710426331 0.25201401114463806 0.17298200726509094 -0.9519829750061035 0.25259900093078613
          -0.02471099980175495 -0.9533309936523438 -0.300915002822876 0.6130269765853882 -0.7900620102882385 -0.000048999998398358
          -0.02473299950361252 -0.953361988067627 0.3008140027523041 -0.6096810102462769 0.604544997215271 0.5126540064811707
          -0.7535499930381775 0.6573870182037354 -0.0021830000914633274 -0.7340490221977234 0.38886600732803345 0.5567359924316406
          -0.6097409725189209 0.6045529842376709 -0.5125740170478821 -0.733722984790802 0.3891359865665436 -0.5569779872894287
          -0.6517810225486755 0.7153120040893555 -0.2520129978656769 -0.9173290133476257 -0.10351400077342987 -0.38443800806999207
          -0.7837409973144531 0.46011701226234436 -0.4171839952468872 -0.8347579836845398 -0.3646950125694275 -0.4125249981880188
          -0.6647099852561951 -0.10970199853181839 -0.7390030026435852 -0.8562510013580322 -0.5007370114326477 -0.12687599658966064
          0.1729850023984909 -0.9519829750061035 -0.252595990896225 -0.6444140076637268 0.260221004486084 0.7190380096435547
          -0.16139699518680573 -0.9133129715919495 0.3739120066165924 -0.325080007314682 -0.9057779908180237 -0.27182498574256897
          0.5043389797210693 -0.863506019115448 -0.00011500000255182385 -0.325082004070282 -0.9057790040969849 0.271820992231369
          -0.15726499259471893 -0.9115449786186218 -0.379938006401062 -0.5431420207023621 0.8396360278129578 -0.0028979999478906393
          -0.6451449990272522 0.25835999846458435 -0.7190539836883545 -0.12207499891519547 0.22101899981498718 0.9675989747047424
          -0.07523799687623978 -0.040373001247644424 0.9963480234146118 0.40555301308631897 -0.7773900032043457 0.48082399368286133
          -0.0633620023727417 -0.9979900121688843 -0.0010359999723732471 0.402646005153656 -0.7759259939193726 -0.4856080114841461
          -0.08338599652051926 -0.038724999874830246 -0.995764970779419 -0.7611209750175476 0.32157498598098755 0.5632799863815308
          -0.9844130277633667 0.17586900293827057 -0.0009970000246539712 -0.12760700285434723 0.22124899923801422 -0.9668329954147339
          -0.7603870034217834 0.32054999470710754 -0.5648530125617981 -0.48002898693084717 -0.5780220031738281 0.6598960161209106
          -0.7932329773902893 -0.6089180111885071 -0.0011569999624043703 -0.47858598828315735 -0.578013002872467 -0.6609510183334351
          <InformationKey name="L2_NORM_RANGE" location="vtkDataArray" length="2">
            <Value index="0">
              0.99999936465
            </Value>
            <Value index="1">
              1.0000006555
            </Value>
          </InformationKey>
        </DataArray>
      </PointData>
      <CellData>
      </CellData>
      <Points>
        <DataArray type="Float32" Name="Points" NumberOfComponents="3" format="ascii" RangeMin="0.4058959912243941" RangeMax="0.44643582730941295">
          -0.02621600031852722 0.4050480127334595 0.0006200000061653554 -0.02671400085091591 0.4054790139198303 0.007455000188201666
          -0.03690100088715553 0.40870198607444763 0.0006009999779053032 -0.024827999994158745 0.4082460105419159 0.008824000135064125
          -0.025226999074220657 0.40602800250053406 0.0006210000137798488 -0.02671400085091591 0.4054790139198303 -0.006258000154048204
          -0.024827999994158745 0.4082460105419159 -0.007627000100910664 -0.02981399931013584 0.4070169925689697 0.014569000340998173
          -0.034933000802993774 0.40897101163864136 0.018029000610113144 -0.046633001416921616 0.411327987909317 0.004720999859273434
          -0.0466729998588562 0.4115839898586273 0.0006009999779053032 -0.046863000839948654 0.41162198781967163 0.012733999639749527
          -0.0431939996778965 0.41151198744773865 0.018122000619769096 -0.02981399931013584 0.4070169925689697 -0.013372000306844711
          -0.034933000802993774 0.40897101163864136 -0.016831999644637108 -0.046633001416921616 0.411327987909317 -0.003524000057950616
          -0.046863000839948654 0.41162198781967163 -0.011536999605596066 -0.0431939996778965 0.41151198744773865 -0.01692499965429306
          -0.024738000705838203 0.4097830057144165 0.0006210000137798488 -0.02565700002014637 0.41051000356674194 0.009403999894857407
          -0.028667999431490898 0.41031599044799805 0.015440000221133232 -0.02565700002014637 0.41051000356674194 -0.008206999860703945
          -0.028667999431490898 0.41031599044799805 -0.01424300018697977 -0.03469499945640564 0.41308701038360596 0.01862500049173832
          -0.048854999244213104 0.41501298546791077 0.0048420000821352005 -0.048854999244213104 0.41490501165390015 0.0006009999779053032
          -0.048854999244213104 0.41501298546791077 -0.003645000047981739 -0.04301699995994568 0.41600000858306885 0.01875299960374832
          -0.0490030013024807 0.41289201378822327 0.014228000305593014 -0.04927099868655205 0.41638800501823425 0.008662999607622623
          -0.03469499945640564 0.41308701038360596 -0.017427999526262283 -0.0490030013024807 0.41289201378822327 -0.013031000271439552
          -0.04301699995994568 0.41600000858306885 -0.017556000500917435 -0.04927099868655205 0.41638800501823425 -0.007466000039130449
          -0.022451000288128853 0.4171999990940094 0.0006230000290088356 -0.023763999342918396 0.4167799949645996 0.009096999652683735
          -0.029489999637007713 0.4130539894104004 0.015069999732077122 -0.023763999342918396 0.4167799949645996 -0.007899999618530273
          -0.029489999637007713 0.4130539894104004 -0.01387299969792366 -0.03386100009083748 0.4163770079612732 0.01699800044298172
          -0.04711100086569786 0.42053601145744324 0.006039000116288662 -0.04672500118613243 0.42041200399398804 0.0006019999855197966
          -0.04711100086569786 0.42053601145744324 -0.0048420000821352005 -0.04213400185108185 0.4188210070133209 0.017781000584363937
          -0.04650599882006645 0.4191569983959198 0.016845999285578728 -0.04841100051999092 0.421519011259079 0.008919999934732914
          -0.03386100009083748 0.4163770079612732 -0.015800999477505684 -0.04650599882006645 0.4191569983959198 -0.01564900018274784
          -0.04213400185108185 0.4188210070133209 -0.0165839996188879 -0.04841100051999092 0.421519011259079 -0.0077229999005794525
          -0.021195000037550926 0.42000100016593933 0.000623999978415668 -0.021754000335931778 0.4198859930038452 0.009998999536037445
          -0.028125999495387077 0.41893699765205383 0.015626000240445137 -0.021754000335931778 0.4198859930038452 -0.008802000433206558
          -0.028125999495387077 0.41893699765205383 -0.014429000206291676 -0.03185499832034111 0.42051300406455994 0.017072999849915504
          -0.043678998947143555 0.4267120063304901 0.006219999864697456 -0.045097000896930695 0.42763400077819824 0.009298999793827534
          -0.04309999942779541 0.4265719950199127 0.0006050000083632767 -0.043678998947143555 0.4267120063304901 -0.005022999830543995
          -0.045097000896930695 0.42763400077819824 -0.008101999759674072 -0.039507001638412476 0.42385101318359375 0.01790500059723854
          -0.04293400049209595 0.4260309934616089 0.018240999430418015 -0.050554998219013214 0.42030999064445496 0.015235000289976597
          -0.048486001789569855 0.4219360053539276 0.018542999401688576 -0.04580000042915344 0.42603498697280884 0.02205600030720234
          -0.05347000062465668 0.42500200867652893 0.003792000003159046 -0.03185499832034111 0.42051300406455994 -0.015876000747084618
          -0.04293400049209595 0.4260309934616089 -0.017044000327587128 -0.039507001638412476 0.42385101318359375 -0.016707999631762505
          -0.048486001789569855 0.4219360053539276 -0.01734600029885769 -0.050554998219013214 0.42030999064445496 -0.014038000255823135
          -0.04580000042915344 0.42603498697280884 -0.020858999341726303 -0.05347000062465668 0.42500200867652893 -0.0025949999690055847
          -0.020354000851511955 0.423352986574173 0.0006249999860301614 -0.021044999361038208 0.42342498898506165 0.010172000154852867
          -0.025824999436736107 0.42116498947143555 0.01650499925017357 -0.021044999361038208 0.42342498898506165 -0.008975000120699406
          -0.025824999436736107 0.42116498947143555 -0.015308000147342682 -0.030629999935626984 0.4226279854774475 0.018813999369740486
          -0.04252300038933754 0.4322749972343445 0.007765999995172024 -0.043473001569509506 0.43121999502182007 0.009940000250935555
          -0.041453998535871506 0.431086003780365 0.0006060000159777701 -0.04252300038933754 0.4322749972343445 -0.006568999961018562
          -0.043473001569509506 0.43121999502182007 -0.008743000216782093 -0.036896999925374985 0.42638200521469116 0.019693000242114067
          -0.04060500115156174 0.42775699496269226 0.01764800027012825 -0.0451509989798069 0.43059098720550537 0.017688000574707985
          -0.055142998695373535 0.4286560118198395 0.020406000316143036 -0.05465099960565567 0.4250029921531677 0.015318999998271465
          -0.053989000618457794 0.4196169972419739 0.021786000579595566 -0.05264599993824959 0.41890400648117065 0.009619999676942825
          -0.05129599943757057 0.4263019859790802 0.020975999534130096 -0.05408500134944916 0.4215419888496399 0.019122999161481857
          -0.05535300076007843 0.421083003282547 0.0006019999855197966 -0.06047400087118149 0.41302400827407837 0.004980000201612711
          -0.05979499965906143 0.4283359944820404 0.00060299999313429 -0.05392099916934967 0.4300970137119293 0.007209000177681446
          -0.030629999935626984 0.4226279854774475 -0.0176170002669096 -0.04060500115156174 0.42775699496269226 -0.016450999304652214
          -0.036896999925374985 0.42638200521469116 -0.01849599927663803 -0.0451509989798069 0.43059098720550537 -0.01649099960923195
          -0.05465099960565567 0.4250029921531677 -0.014121999964118004 -0.055142998695373535 0.4286560118198395 -0.019208999350667
          -0.053989000618457794 0.4196169972419739 -0.020587999373674393 -0.05264599993824959 0.41890400648117065 -0.008422999642789364
          -0.05408500134944916 0.4215419888496399 -0.01792600005865097 -0.05129599943757057 0.4263019859790802 -0.01977900043129921
          -0.06047400087118149 0.41302400827407837 -0.0037819999270141125 -0.05392099916934967 0.4300970137119293 -0.006012000143527985
          -0.03198099881410599 0.42813900113105774 0.0006070000235922635 -0.02492400072515011 0.4248020052909851 0.016724999994039536
          -0.030201999470591545 0.42706298828125 0.019694000482559204 -0.02492400072515011 0.4248020052909851 -0.015527999959886074
          -0.030201999470591545 0.42706298828125 -0.018496999517083168 -0.03717400133609772 0.4294840097427368 0.019811000674962997
          -0.05112199857831001 0.4365679919719696 0.014302999712526798 -0.044537000358104706 0.4318540096282959 0.01267900038510561
          -0.05150299891829491 0.4345029890537262 0.009217999875545502 -0.041179999709129333 0.4313350021839142 0.015261000022292137
          -0.044537000358104706 0.4318540096282959 -0.011482000350952148 -0.05112199857831001 0.4365679919719696 -0.013105999678373337
          -0.05150299891829491 0.4345029890537262 -0.00802099984139204 -0.041179999709129333 0.4313350021839142 -0.014063999988138676
          -0.051920998841524124 0.4310019910335541 0.018787000328302383 -0.050523001700639725 0.4330340027809143 0.016354000195860863
          -0.06131599843502045 0.4410119950771332 0.03246099874377251 -0.05886700004339218 0.4312399923801422 0.018664000555872917
          -0.05383199825882912 0.4329729974269867 0.01882000081241131 -0.0654670000076294 0.4198629856109619 0.011427000164985657
          -0.06206300109624863 0.42037901282310486 0.01385399978607893 -0.06382600218057632 0.43394899368286133 0.022292999550700188
          -0.05809900164604187 0.4287930130958557 0.011459000408649445 -0.05347999930381775 0.4175260066986084 0.010874999687075615
          -0.06617800146341324 0.41683799028396606 0.015199000015854836 -0.05417799949645996 0.42761701345443726 0.02313699945807457
          -0.05586700141429901 0.42644500732421875 0.02115200087428093 -0.05519700050354004 0.4319609999656677 0.021441999822854996
          -0.06146499887108803 0.41754600405693054 0.0006009999779053032 -0.06047400087118149 0.41219401359558105 0.0063390000723302364
          -0.07052800059318542 0.4213930070400238 0.0006019999855197966 -0.061347998678684235 0.4260160028934479 0.004844999872148037
          -0.05859500169754028 0.4241569936275482 0.007708000019192696 -0.05767500028014183 0.4273329973220825 0.00950899999588728
          -0.061347998678684235 0.4260160028934479 -0.003648000070825219 -0.05859500169754028 0.4241569936275482 -0.006510999985039234
          -0.05767500028014183 0.4273329973220825 -0.008311999961733818 -0.05464499816298485 0.4307819902896881 0.010320999659597874
          -0.03717400133609772 0.4294840097427368 -0.01861399970948696 -0.051920998841524124 0.4310019910335541 -0.017589999362826347
          -0.050523001700639725 0.4330340027809143 -0.015157000161707401 -0.06206300109624863 0.42037901282310486 -0.012656999751925468
          -0.0654670000076294 0.4198629856109619 -0.010230000130832195 -0.05886700004339218 0.4312399923801422 -0.01746699959039688
          -0.06382600218057632 0.43394899368286133 -0.0210960004478693 -0.05809900164604187 0.4287930130958557 -0.010262000374495983
          -0.06131599843502045 0.4410119950771332 -0.031182000413537025 -0.05383199825882912 0.4329729974269867 -0.017622999846935272
          -0.05347999930381775 0.4175260066986084 -0.009677999652922153 -0.06617800146341324 0.41683799028396606 -0.014001999981701374
          -0.05586700141429901 0.42644500732421875 -0.019954999908804893 -0.05417799949645996 0.42761701345443726 -0.021940000355243683
          -0.05519700050354004 0.4319609999656677 -0.02024500072002411 -0.06047400087118149 0.41219401359558105 -0.005142000038176775
          -0.05464499816298485 0.4307819902896881 -0.009123999625444412 -0.06623899936676025 0.44025200605392456 0.027310999110341072
          -0.05728000029921532 0.43320998549461365 0.012524000369012356 -0.06623899936676025 0.44025200605392456 -0.02603299915790558
          -0.05728000029921532 0.43320998549461365 -0.011327000334858894 -0.06515099853277206 0.43866199254989624 0.03589800000190735
          -0.06699299812316895 0.43748098611831665 0.028037000447511673 -0.06789200007915497 0.4184649884700775 0.009387999773025513
          -0.06896699965000153 0.41521498560905457 0.00891599990427494 -0.06749600172042847 0.41199201345443726 0.014991000294685364
          -0.06492800265550613 0.4213410019874573 0.00817899964749813 -0.061834998428821564 0.4108699858188629 0.012008000165224075
          -0.06166199967265129 0.41515499353408813 0.005164000205695629 -0.06425999850034714 0.41387999057769775 0.0006000000284984708
          -0.06166199967265129 0.41515499353408813 -0.003967000171542168 -0.06881900131702423 0.42278701066970825 0.004184000194072723
          -0.07838699966669083 0.41430699825286865 0.0005849999724887311 -0.06950400024652481 0.41942399740219116 0.0040870001539587975
          -0.06881900131702423 0.42278701066970825 -0.0029869999270886183 -0.06950400024652481 0.41942399740219116 -0.0028899998869746923
          -0.06492800265550613 0.4213410019874573 -0.006982000079005957 -0.06896699965000153 0.41521498560905457 -0.007718999870121479
          -0.06789200007915497 0.4184649884700775 -0.008191999979317188 -0.06749600172042847 0.41199201345443726 -0.013794000260531902
          -0.06515099853277206 0.43866199254989624 -0.034619998186826706 -0.06699299812316895 0.43748098611831665 -0.02675900049507618
          -0.061834998428821564 0.4108699858188629 -0.010811000131070614 -0.07053600251674652 0.41634100675582886 0.004238000139594078
          -0.0702349990606308 0.41452598571777344 0.004865000024437904 -0.06660600006580353 0.41213899850845337 0.007141999900341034
          -0.07113400101661682 0.41088899970054626 0.000598000013269484 -0.06660600006580353 0.41213899850845337 -0.0059449998661875725
          -0.0702349990606308 0.41452598571777344 -0.003667999990284443 -0.08460699766874313 0.40817299485206604 0.0006210000137798488
          -0.07053600251674652 0.41634100675582886 -0.0030410001054406166 -0.08005700260400772 0.4059320092201233 0.0033950000070035458
          -0.07384800165891647 0.40985700488090515 0.004573000129312277 -0.08215200155973434 0.4003700017929077 0.00278700003400445
          -0.08270899951457977 0.4003109931945801 0.0006360000115819275 -0.08215200155973434 0.4003700017929077 -0.0015089999651536345
          -0.07384800165891647 0.40985700488090515 -0.0033760000951588154 -0.08705099672079086 0.40610000491142273 0.0034260000102221966
          -0.08792299777269363 0.4053010046482086 0.0006259999936446548 -0.08005700260400772 0.4059320092201233 -0.002116000046953559
          -0.08705099672079086 0.40610000491142273 -0.0021470000501722097 -0.08649999648332596 0.4030350148677826 0.0038840000052005053
          -0.08535200357437134 0.4013189971446991 0.0006200000061653554 -0.08649999648332596 0.4030350148677826 -0.002606000052765012
          <InformationKey name="L2_NORM_RANGE" location="vtkDataArray" length="2">
            <Value index="0">
              0.40589599122
            </Value>
            <Value index="1">
              0.44643582731
            </Value>
          </InformationKey>
        </DataArray>
      </Points>
      <Verts>
        <DataArray type="Int64" Name="connectivity" format="ascii" RangeMin="1e+299" RangeMax="-1e+299">
        </DataArray>
        <DataArray type="Int64" Name="offsets" format="ascii" RangeMin="1e+299" RangeMax="-1e+299">
        </DataArray>
      </Verts>
      <Lines>
        <DataArray type="Int64" Name="connectivity" format="ascii" RangeMin="1e+299" RangeMax="-1e+299">
        </DataArray>
        <DataArray type="Int64" Name="offsets" format="ascii" RangeMin="1e+299" RangeMax="-1e+299">
        </DataArray>
      </Lines>
      <Strips>
        <DataArray type="Int64" Name="connectivity" format="ascii" RangeMin="1e+299" RangeMax="-1e+299">
        </DataArray>
        <DataArray type="Int64" Name="offsets" format="ascii" RangeMin="1e+299" RangeMax="-1e+299">