<?xml version="1.0"?>
<VTKFile type="PolyData" version="0.1" byte_order="LittleEndian" header_type="UInt32" compressor="vtkZLibDataCompressor">
  <PolyData>
    <Piece NumberOfPoints="212" NumberOfVerts="0" NumberOfLines="0" NumberOfStrips="0" NumberOfPolys="424">
      <PointData Normals="Normals">
        <DataArray type="Float32" Name="Normals" NumberOfComponents="3" format="ascii" RangeMin="0.9999993787975962" RangeMax="1.0000007087339224">
          0.9274320006370544 -0.3739910125732422 0.0003640000068116933 0.8084560036659241 -0.5528600215911865 0.20185400545597076
          0.438306987285614 -0.8988249897956848 0.00001700000029813964 0.8906610012054443 0.3278129994869232 0.31505900621414185
          0.9760850071907043 0.2173900008201599 0.00023799999326001853 0.8085489869117737 -0.5528180003166199 -0.2015949934720993
          0.890733003616333 0.3279159963130951 -0.31474700570106506 0.7426990270614624 -0.4388970136642456 0.5057340264320374
          0.4713580012321472 -0.4661349952220917 0.748691976070404 -0.1756879985332489 -0.9842709898948669 -0.018564999103546143
          -0.20780199766159058 -0.9781709909439087 0.00006199999916134402 -0.15009300410747528 -0.9823970198631287 0.11121299862861633
          0.11473199725151062 -0.6865109801292419 0.7180100083351135 0.7426980137825012 -0.4389039874076843 -0.5057299733161926
          0.47135600447654724 -0.46613600850105286 -0.7486929893493652 -0.17568400502204895 -0.9842720031738281 0.018543999642133713
          -0.15008699893951416 -0.9823979735374451 -0.11121100187301636 0.11473699659109116 -0.6865109801292419 -0.7180100083351135
          0.8039299845695496 0.5947239995002747 0.00019500000053085387 0.7214999794960022 0.5795630216598511 0.37887299060821533
          0.5019029974937439 0.387129008769989 0.7734490036964417 0.7215970158576965 0.5796560049057007 -0.37854498624801636
          0.5019000172615051 0.3871299922466278 -0.7734509706497192 0.12998899817466736 0.21087099611759186 0.9688320159912109
          -0.6962389945983887 -0.7078080177307129 0.11941199749708176 -0.7679240107536316 -0.6405410170555115 0.00013600000238511711
          -0.6962540149688721 -0.7078179717063904 -0.11926499754190445 -0.2532140016555786 -0.12263000011444092 0.9596070051193237
          -0.6479290127754211 -0.6761469841003418 0.3507330119609833 -0.6701340079307556 -0.6604350209236145 -0.3387410044670105
          0.12998799979686737 0.21086999773979187 -0.9688330292701721 -0.6479290127754211 -0.6761469841003418 -0.3507330119609833
          -0.2532089948654175 -0.1226319968700409 -0.9596070051193237 -0.6701340079307556 -0.6604350209236145 0.3387410044670105
          0.9577239751815796 0.2876890003681183 0.00038400001358240843 0.9046670198440552 0.17304100096225739 0.38940200209617615
          0.4571459889411926 0.38966599106788635 0.799485981464386 0.9047799706459045 0.17307999730110168 -0.38912200927734375
          0.45714500546455383 0.3896619975566864 -0.7994880080223083 0.14585299789905548 0.17014500498771667 0.9745650291442871
          -0.890733003616333 -0.4117720127105713 -0.19245299696922302 -0.9547119736671448 -0.29753199219703674 -0.00008099999831756577
          -0.8907309770584106 -0.41176900267601013 0.19247199594974518 -0.15789900720119476 0.003976999782025814 0.9874470233917236
          0.08189000189304352 -0.48686501383781433 0.869629979133606 -0.46083301305770874 -0.7121610045433044 -0.5295850038528442
          0.14585599303245544 0.17013999819755554 -0.9745659828186035 0.0818919986486435 -0.48686400055885315 -0.8696309924125671
          -0.15790300071239471 0.0039809998124837875 -0.9874470233917236 -0.46083301305770874 -0.7121610045433044 0.5295850038528442
          0.9774019718170166 0.21139000356197357 0.00021600000036414713 0.932735025882721 0.14987599849700928 0.3279370069503784
          0.6059880256652832 -0.058097001165151596 0.793349027633667 0.9327859878540039 0.14990399777889252 -0.32777899503707886
          0.6059859991073608 -0.05809200182557106 -0.7933509945869446 0.2989549934864044 -0.19457200169563293 0.934220016002655
          -0.9144819974899292 -0.3003090023994446 -0.2711769938468933 -0.3819969892501831 -0.05789000168442726 -0.9223489761352539
          -0.9462839961051941 -0.32333698868751526 -0.00015999999595806003 -0.9145020246505737 -0.3003399968147278 0.2710750102996826
          -0.3819969892501831 -0.05789000168442726 0.9223489761352539 0.10878299921751022 -0.25193700194358826 0.9616100192070007
          0.13683299720287323 0.035673998296260834 0.989952027797699 0.05269400030374527 -0.9750840067863464 0.21548600494861603
          0.039611998945474625 -0.6295580267906189 0.7759429812431335 0.05546199902892113 -0.03630099818110466 0.9978010058403015
          0.6127409934997559 0.2836979925632477 -0.7376070022583008 0.29895299673080444 -0.1945669949054718 -0.9342219829559326
          0.13684000074863434 0.03567200154066086 -0.9899510145187378 0.1087850034236908 -0.25193899869918823 -0.9616100192070007
          0.039611998945474625 -0.6295580267906189 -0.7759429812431335 0.05269400030374527 -0.9750840067863464 -0.21548600494861603
          0.05546199902892113 -0.03630099818110466 -0.9978010058403015 0.6129549741744995 0.28380998969078064 0.7373859882354736
          0.6669650077819824 0.7450889945030212 0.00019200000679120421 0.4977180063724518 0.7924680113792419 0.35252100229263306
          0.6323480010032654 -0.017689000815153122 0.7744830250740051 0.4977540075778961 0.7925090193748474 -0.3523769974708557
          0.6323490142822266 -0.017687000334262848 -0.774482011795044 0.2738189995288849 -0.22699999809265137 0.9346089959144592
          -0.6764289736747742 0.6225720047950745 -0.3935059905052185 -0.18989500403404236 -0.0851529985666275 -0.9781050086021423
          -0.8894389867782593 0.457055002450943 -0.00023700000019744039 -0.6764969825744629 0.6225969791412354 0.3933509886264801
          -0.18989500403404236 -0.0851529985666275 0.9781050086021423 -0.018629999831318855 -0.20353400707244873 0.9788910150527954
          -0.24131199717521667 0.1430159956216812 0.9598510265350342 -0.05962499976158142 0.661903977394104 0.7472130060195923
          -0.5606819987297058 -0.39226898550987244 0.7292199730873108 -0.4516870081424713 -0.557977020740509 0.6961609721183777
          0.33449798822402954 -0.11005900055170059 0.9359480142593384 0.7941840291023254 -0.23824499547481537 0.5590270161628723
          0.09726099669933319 0.2887130081653595 0.9524629712104797 -0.5147600173950195 -0.5633770227432251 0.6462410092353821
          0.9366530179977417 0.3502579927444458 -0.0003589999978430569 0.938418984413147 -0.1123960018157959 -0.3267050087451935
          -0.712693989276886 0.7014750242233276 0.000014999999621068127 -0.4924429953098297 0.39326900243759155 -0.7764269709587097
          0.27382099628448486 -0.22700099647045135 -0.934607982635498 -0.24131199717521667 0.1430159956216812 -0.9598510265350342
          -0.01862500049173832 -0.20354099571704865 -0.978888988494873 -0.05962499976158142 0.661903977394104 -0.7472130060195923
          -0.4516870081424713 -0.557977020740509 -0.6961609721183777 -0.5606849789619446 -0.39226800203323364 -0.7292180061340332
          0.33449798822402954 -0.11005900055170059 -0.9359480142593384 0.7941830158233643 -0.23824599385261536 -0.5590280294418335
          -0.5147550106048584 -0.563372015953064 -0.6462510228157043 0.09725499898195267 0.2887110114097595 -0.9524639844894409
          0.9385150074958801 -0.11241599917411804 0.3264249861240387 -0.49237000942230225 0.39332398772239685 0.7764459848403931
          -0.32130300998687744 0.9469770193099976 9.999999974752427e-7 0.20346599817276 0.8168399930000305 0.5397899746894836
          0.05270100012421608 0.5483369827270508 0.8345950245857239 0.20346200466156006 0.8168429732322693 -0.5397890210151672
          0.05270399898290634 0.5483409762382507 -0.8345919847488403 -0.27662399411201477 0.3872239887714386 0.8795089721679688
          -0.25103500485420227 0.9398810267448425 -0.23152700066566467 -0.022350000217556953 0.9257270097732544 0.3775320053100586
          -0.725845992565155 0.3679629862308502 -0.5811629891395569 -0.45731499791145325 0.787513017654419 0.41314101219177246
          -0.022350000217556953 0.9257270097732544 -0.3775320053100586 -0.2510380148887634 0.9398810267448425 0.23152700066566467
          -0.7258449792861938 0.3679639995098114 0.5811640024185181 -0.457302987575531 0.78752601146698 -0.413129985332489
          0.23058399558067322 0.6203269958496094 0.7496830224990845 0.21089500188827515 0.722690999507904 0.6582109928131104
          -0.2691909968852997 0.5092560052871704 0.8174319863319397 0.06671600043773651 -0.42213600873947144 0.9040740132331848
          0.0458189994096756 0.46122801303863525 0.8860980272293091 -0.8470050096511841 0.006754999980330467 0.5315420031547546
          -0.13563300669193268 0.033229999244213104 0.990202009677887 -0.8560439944267273 -0.28549298644065857 -0.43090900778770447
          -0.8911769986152649 -0.025191999971866608 -0.45295700430870056 0.9406650066375732 0.11861900240182877 0.3179279863834381
          -0.3423439860343933 0.18901300430297852 0.9203659892082214 0.08881700038909912 0.0047519998624920845 0.9960370063781738
          -0.7031430006027222 -0.5780820250511169 0.41401800513267517 -0.9897369742393494 -0.13519999384880066 0.0462770015001297
          -0.04392300173640251 -0.9990350008010864 -0.0002469999890308827 0.22397500276565552 -0.8400009870529175 -0.4941990077495575
          -0.9688739776611328 0.2475530058145523 0.0001900000061141327 -0.7987809777259827 0.4961859881877899 0.34021899104118347
          -0.9053320288658142 0.3771910071372986 0.19519199430942535 -0.9339579939842224 0.26100799441337585 -0.24412399530410767
          -0.7987120151519775 0.4963429868221283 -0.34015199542045593 -0.9052979946136475 0.377344012260437 -0.1950560063123703
          -0.9339410066604614 0.2609950006008148 0.24420300126075745 -0.7557209730148315 0.14227400720119476 -0.6392530202865601
          -0.276621013879776 0.38723498582839966 -0.8795049786567688 0.23058399558067322 0.6203250288963318 -0.7496849894523621
          0.21089300513267517 0.722690999507904 -0.6582109928131104 -0.13563300669193268 0.033229999244213104 -0.990202009677887
          -0.8470050096511841 0.006754999980330467 -0.5315420031547546 0.0667169988155365 -0.42213401198387146 -0.904075026512146
          -0.8560439944267273 -0.285506010055542 0.4309009909629822 -0.8911769986152649 -0.025200000032782555 0.4529559910297394
          -0.2691980004310608 0.509257972240448 -0.8174279928207397 0.0458110012114048 0.46122801303863525 -0.8860980272293091
          0.9406629800796509 0.11860600113868713 -0.31794100999832153 -0.3423439860343933 0.18901300430297852 -0.9203659892082214
          -0.7031350135803223 -0.5780799984931946 -0.41403499245643616 0.08882100135087967 0.0047519998624920845 -0.9960359930992126
          -0.989736020565033 -0.13520300388336182 -0.04628999903798103 0.22389300167560577 -0.8401200175285339 0.494035005569458
          -0.7557219862937927 0.14226999878883362 0.6392520070075989 -0.8984370231628418 0.41163501143455505 -0.1528639942407608
          -0.3675279915332794 0.16899099946022034 -0.9145299792289734 -0.8984360098838806 0.41163599491119385 0.15286700427532196
          -0.36753401160240173 0.16899600625038147 0.9145269989967346 -0.31494200229644775 -0.3925580084323883 0.8641240000724792
          -0.06273599714040756 -0.3303849995136261 0.9417589902877808 -0.9053800106048584 0.0534529983997345 0.42122501134872437
          -0.68961501121521 -0.5538430213928223 0.46657198667526245 -0.5851349830627441 -0.7059910297393799 0.39899200201034546
          -0.9397709965705872 0.17287500202655792 0.2948629856109619 0.3573389947414398 -0.8666830062866211 0.34809398651123047
          0.04066599905490875 -0.9172059893608093 -0.3963319957256317 0.6117640137672424 -0.7910400032997131 -0.0002229999954579398
          0.04050400108098984 -0.9173099994659424 0.396109014749527 -0.8286849856376648 0.13449299335479736 0.5433160066604614
          -0.9076089859008789 0.4198159873485565 -0.000818000000435859 -0.803164005279541 -0.01549299992620945 0.5955560207366943
          -0.8287460207939148 0.1344660073518753 -0.5432299971580505 -0.802944004535675 -0.015025000087916851 -0.59586501121521
          -0.939769983291626 0.17287799715995789 -0.2948650121688843 -0.68961501121521 -0.5538430213928223 -0.46657198667526245
          -0.9053769707679749 0.053449999541044235 -0.4212299883365631 -0.5851349830627441 -0.7059910297393799 -0.39899200201034546
          -0.3149409890174866 -0.3925530016422272 -0.8641260266304016 -0.06273599714040756 -0.3303849995136261 -0.9417589902877808
          0.35733699798583984 -0.8666849732398987 -0.3480919897556305 -0.647471010684967 0.053998999297618866 0.7601749897003174
          0.052925001829862595 -0.6967849731445312 0.7153239846229553 -0.12637700140476227 -0.9855909943580627 -0.11242199689149857
          0.7338629961013794 -0.6792979836463928 -0.00002700000004551839 -0.12637700140476227 -0.9855909943580627 0.11242199689149857
          0.052907999604940414 -0.6967650055885315 -0.715345025062561 -0.8297560214996338 0.5581250190734863 -0.001415999955497682
          -0.6463940143585205 0.053665999323129654 -0.7611140012741089 -0.17367400228977203 0.2157440036535263 0.9608809947967529
          0.05688000097870827 -0.07035999745130539 0.9958990216255188 0.4584659934043884 -0.4720659852027893 0.7529690265655518
          0.33744099736213684 -0.9413470029830933 -0.000522000016644597 0.45844000577926636 -0.4720200002193451 -0.7530140280723572
          0.05686800181865692 -0.0703589990735054 -0.9958990216255188 -0.8038399815559387 -0.18925100564956665 0.5639370083808899
          -0.8905529975891113 -0.4548780024051666 -0.0010229999898001552 -0.1728460043668747 0.21495500206947327 -0.9612069725990295
          -0.802718997001648 -0.1893710047006607 -0.5654919743537903 -0.09177400171756744 -0.7061880230903625 0.7020519971847534
          -0.3640429973602295 -0.9313809871673584 -0.0009919999865815043 -0.09111999720335007 -0.7056540250778198 -0.7026730179786682
          <InformationKey name="L2_NORM_RANGE" location="vtkDataArray" length="2">
            <Value index="0">
              0.9999993788
            </Value>
            <Value index="1">
              1.0000007087
            </Value>
          </InformationKey>
        </DataArray>
      </PointData>
      <CellData>
      </CellData>
      <Points>
        <DataArray type="Float32" Name="Points" NumberOfComponents="3" format="ascii" RangeMin="0.15840170062528636" RangeMax="0.20450195973090748">
          -0.011549999937415123 0.1774040013551712 0.00002499999936844688 -0.012450999580323696 0.1773580014705658 0.008244000375270844
          -0.026102999225258827 0.17045100033283234 0.000003000000106112566 -0.012807999737560749 0.18223899602890015 0.009890000335872173
          -0.011332999914884567 0.17945900559425354 0.00002700000004551839 -0.012450999580323696 0.1773580014705658 -0.008244000375270844
          -0.012807999737560749 0.18223899602890015 -0.009890000335872173 -0.017084000632166862 0.17585399746894836 0.016798000782728195
          -0.024230999872088432 0.17273999750614166 0.020958000794053078 -0.03819499909877777 0.16464200615882874 0.00495699979364872
          -0.0384569987654686 0.16487500071525574 0.000003000000106112566 -0.03869200125336647 0.1647219955921173 0.014592000283300877
          -0.035238999873399734 0.16706199944019318 0.021071000024676323 -0.017084000632166862 0.17585399746894836 -0.016798000782728195
          -0.024230999872088432 0.17273999750614166 -0.020958000794053078 -0.03819499909877777 0.16464200615882874 -0.00495699979364872
          -0.03869200125336647 0.1647219955921173 -0.014592000283300877 -0.035238999873399734 0.16706199944019318 -0.021071000024676323
          -0.014030000194907188 0.1839749962091446 0.00002700000004551839 -0.015636000782251358 0.18382099270820618 0.01058799959719181
          -0.018688000738620758 0.1805499941110611 0.0178459994494915 -0.015636000782251358 0.18382099270820618 -0.01058799959719181
          -0.018688000738620758 0.1805499941110611 -0.0178459994494915 -0.027504999190568924 0.177388995885849 0.021676000207662582
          -0.04163999855518341 0.16814400255680084 0.0051020001992583275 -0.043637000024318695 0.16621099412441254 0.000003000000106112566
          -0.04163999855518341 0.16814400255680084 -0.0051020001992583275 -0.038899000734090805 0.1720460057258606 0.021828999742865562
          -0.042068999260663986 0.16390599310398102 0.016388000920414925 -0.04311800003051758 0.1693120002746582 0.009696000255644321
          -0.027504999190568924 0.177388995885849 -0.021676000207662582 -0.042068999260663986 0.16390599310398102 -0.016388000920414925
          -0.038899000734090805 0.1720460057258606 -0.021828999742865562 -0.04311800003051758 0.1693120002746582 -0.009696000255644321
          -0.017551999539136887 0.1940770000219345 0.000029999999242136255 -0.01853800006210804 0.19239799678325653 0.010219000279903412
          -0.021913999691605568 0.18264499306678772 0.017400000244379044 -0.01853800006210804 0.19239799678325653 -0.010219000279903412
          -0.021913999691605568 0.18264499306678772 -0.017400000244379044 -0.02943499945104122 0.18175899982452393 0.019719000905752182
          -0.04622400179505348 0.17586900293827057 0.006541999988257885 -0.04574200138449669 0.1760839968919754 0.000004999999873689376
          -0.04622400179505348 0.17586900293827057 -0.006541999988257885 -0.037870001047849655 0.1786009967327118 0.020659999921917915
          -0.04455399885773659 0.17486900091171265 0.01953599974513054 -0.048280999064445496 0.17578400671482086 0.010005000047385693
          -0.02943499945104122 0.18175899982452393 -0.019719000905752182 -0.04455399885773659 0.17486900091171265 -0.01953599974513054
          -0.037870001047849655 0.1786009967327118 -0.020659999921917915 -0.048280999064445496 0.17578400671482086 -0.010005000047385693
          -0.01846100017428398 0.19838599860668182 0.00003099999958067201 -0.018929999321699142 0.1977439969778061 0.01130400039255619
          -0.024560000747442245 0.19083000719547272 0.01806900091469288 -0.018929999321699142 0.1977439969778061 -0.01130400039255619
          -0.024560000747442245 0.19083000719547272 -0.01806900091469288 -0.02950100041925907 0.18918700516223907 0.019809000194072723
          -0.04964200034737587 0.18490299582481384 0.00675999978557229 -0.051771000027656555 0.1846420019865036 0.010460999794304371
          -0.048955999314785004 0.18527700006961823 0.000007999999979801942 -0.04964200034737587 0.18490299582481384 -0.00675999978557229
          -0.051771000027656555 0.1846420019865036 -0.010460999794304371 -0.03969600051641464 0.18540699779987335 0.020809000357985497
          -0.044801998883485794 0.1847209930419922 0.02121400088071823 -0.05046999827027321 0.17221400141716003 0.01759899966418743
          -0.04867799952626228 0.1761859953403473 0.021577000617980957 -0.05123699828982353 0.18219499289989471 0.025800000876188278
          -0.056720998138189316 0.1784379929304123 0.0038399999029934406 -0.02950100041925907 0.18918700516223907 -0.019809000194072723
          -0.044801998883485794 0.1847209930419922 -0.02121400088071823 -0.03969600051641464 0.18540699779987335 -0.020809000357985497
          -0.04867799952626228 0.1761859953403473 -0.021577000617980957 -0.05046999827027321 0.17221400141716003 -0.01759899966418743
          -0.05123699828982353 0.18219499289989471 -0.025800000876188278 -0.056720998138189316 0.1784379929304123 -0.0038399999029934406
          -0.020210999995470047 0.20293700695037842 0.00003199999991920777 -0.020956000313162804 0.2023860067129135 0.011510999873280525
          -0.023982999846339226 0.1954520046710968 0.01912599988281727 -0.020956000313162804 0.2023860067129135 -0.011510999873280525
          -0.023982999846339226 0.1954520046710968 -0.01912599988281727 -0.02991200052201748 0.19269399344921112 0.02190300077199936
          -0.0527850016951561 0.19223499298095703 0.008617999963462353 -0.05291900038719177 0.19017399847507477 0.011233000084757805
          -0.05079900100827217 0.19187599420547485 0.000009000000318337698 -0.0527850016951561 0.19223499298095703 -0.008617999963462353
          -0.05291900038719177 0.19017399847507477 -0.011233000084757805 -0.03904400020837784 0.19065499305725098 0.022958999499678612
          -0.0473800003528595 0.18890100717544556 0.020500000566244125 -0.05410800129175186 0.18792599439620972 0.020547999069094658
          -0.06116899847984314 0.18115200102329254 0.023816000670194626 -0.0579259991645813 0.17739300429821014 0.01769999973475933
          -0.055020999163389206 0.1719300001859665 0.025474999099969864 -0.050877999514341354 0.16873900592327118 0.010847999714314938
          -0.05548100173473358 0.18185299634933472 0.024501999840140343 -0.056807998567819595 0.17382000386714935 0.022274000570178032
          -0.05751100182533264 0.17240700125694275 0.000003999999989900971 -0.05130400136113167 0.15514400601387024 0.005268000066280365
          -0.06611499935388565 0.17841200530529022 0.000004999999873689376 -0.06100599840283394 0.1838880032300949 0.007949000224471092
          -0.02991200052201748 0.19269399344921112 -0.02190300077199936 -0.0473800003528595 0.18890100717544556 -0.020500000566244125
          -0.03904400020837784 0.19065499305725098 -0.022958999499678612 -0.05410800129175186 0.18792599439620972 -0.020547999069094658
          -0.0579259991645813 0.17739300429821014 -0.01769999973475933 -0.06116899847984314 0.18115200102329254 -0.023816000670194626
          -0.055020999163389206 0.1719300001859665 -0.025474999099969864 -0.050877999514341354 0.16873900592327118 -0.010847999714314938
          -0.056807998567819595 0.17382000386714935 -0.022274000570178032 -0.05548100173473358 0.18185299634933472 -0.024501999840140343
          -0.05130400136113167 0.15514400601387024 -0.005268000066280365 -0.06100599840283394 0.1838880032300949 -0.007949000224471092
          -0.03551800176501274 0.19766899943351746 0.000009999999747378752 -0.02589300088584423 0.20037999749183655 0.01939000003039837
          -0.032910000532865524 0.19808700680732727 0.022960999980568886 -0.02589300088584423 0.20037999749183655 -0.01939000003039837
          -0.032910000532865524 0.19808700680732727 -0.022960999980568886 -0.041717998683452606 0.193898007273674 0.023101000115275383
          -0.06300999969244003 0.19379299879074097 0.016478000208735466 -0.05447100102901459 0.18991300463676453 0.014526000246405602
          -0.061847999691963196 0.19108499586582184 0.010363999754190445 -0.050717998296022415 0.19240699708461761 0.01763099990785122
          -0.05447100102901459 0.18991300463676453 -0.014526000246405602 -0.06300999969244003 0.19379299879074097 -0.016478000208735466
          -0.061847999691963196 0.19108499586582184 -0.010363999754190445 -0.050717998296022415 0.19240699708461761 -0.01763099990785122
          -0.05964599922299385 0.18669599294662476 0.021870000287890434 -0.05974699929356575 0.19026599824428558 0.01894400082528591
          -0.06897299736738205 0.19149400293827057 0.01984499953687191 -0.0668879970908165 0.1823890060186386 0.014623000286519527
          -0.06307400017976761 0.18726800382137299 0.02191000059247017 -0.06492099910974503 0.16641299426555634 0.013020000420510769
          -0.06075499951839447 0.16961799561977386 0.015938999131321907 -0.07293599843978882 0.17953400313854218 0.01756099984049797
          -0.0647289976477623 0.18043799698352814 0.01305800024420023 -0.05246699973940849 0.1700029969215393 0.012357000261545181
          -0.06324999779462814 0.16231699287891388 0.017556000500917435 -0.05940600112080574 0.1808139979839325 0.02710000053048134
          -0.06024700030684471 0.17797300219535828 0.024714000523090363 -0.06370600312948227 0.1848980039358139 0.02506200037896633
          -0.05617799982428551 0.16107699275016785 0.000003000000106112566 -0.050627999007701874 0.15419399738311768 0.006903000175952911
          -0.0718270018696785 0.16366200149059296 0.000003999999989900971 -0.0675709992647171 0.17253099381923676 0.005106000229716301
          -0.06336899846792221 0.17283199727535248 0.008549000136554241 -0.06320200115442276 0.1791359931230545 0.010714000090956688
          -0.0675709992647171 0.17253099381923676 -0.005106000229716301 -0.06336899846792221 0.17283199727535248 -0.008549000136554241
          -0.06320200115442276 0.1791359931230545 -0.010714000090956688 -0.062258001416921616 0.18403300642967224 0.011691000312566757
          -0.041717998683452606 0.193898007273674 -0.023101000115275383 -0.05964599922299385 0.18669599294662476 -0.021870000287890434
          -0.05974699929356575 0.19026599824428558 -0.01894400082528591 -0.06075499951839447 0.16961799561977386 -0.015938999131321907
          -0.06492099910974503 0.16641299426555634 -0.013020000420510769 -0.0668879970908165 0.1823890060186386 -0.014623000286519527
          -0.07293599843978882 0.17953400313854218 -0.01756099984049797 -0.0647289976477623 0.18043799698352814 -0.01305800024420023
          -0.06897299736738205 0.19149400293827057 -0.019843999296426773 -0.06307400017976761 0.18726800382137299 -0.02191000059247017
          -0.05246699973940849 0.1700029969215393 -0.012357000261545181 -0.06324999779462814 0.16231699287891388 -0.017556000500917435
          -0.06024700030684471 0.17797300219535828 -0.024714000523090363 -0.05940600112080574 0.1808139979839325 -0.02710000053048134
          -0.06370600312948227 0.1848980039358139 -0.02506200037896633 -0.050627999007701874 0.15419399738311768 -0.006903000175952911
          -0.062258001416921616 0.18403300642967224 -0.011691000312566757 -0.07342199981212616 0.1862660050392151 0.01663300022482872
          -0.06721100211143494 0.18623100221157074 0.01433899998664856 -0.07342199981212616 0.1862660050392151 -0.01663300022482872
          -0.06721100211143494 0.18623100221157074 -0.01433899998664856 -0.07111900299787521 0.1854040026664734 0.021988000720739365
          -0.07210999727249146 0.18241800367832184 0.017085999250411987 -0.06649299710988998 0.16265499591827393 0.01056899968534708
          -0.06624200195074081 0.15686799585819244 0.010001000016927719 -0.059849001467227936 0.15459099411964417 0.017305999994277954
          -0.06552299857139587 0.16858400404453278 0.009115000255405903 -0.051068998873233795 0.1514669954776764 0.013717999681830406
          -0.05437000095844269 0.15652699768543243 0.005489000119268894 -0.058694999665021896 0.1606370061635971 9.999999974752427e-7
          -0.05437000095844269 0.15652699768543243 -0.005489000119268894 -0.07105299830436707 0.16677899658679962 0.004311999771744013
          -0.07569099962711334 0.1552100032567978 -0.000015999999959603883 -0.06907600164413452 0.16231900453567505 0.004195000045001507
          -0.07105299830436707 0.16677899658679962 -0.004311999771744013 -0.06907600164413452 0.16231900453567505 -0.004195000045001507
          -0.06552299857139587 0.16858400404453278 -0.009115000255405903 -0.06624200195074081 0.15686799585819244 -0.010001000016927719
          -0.06649299710988998 0.16265499591827393 -0.01056899968534708 -0.059849001467227936 0.15459099411964417 -0.017305999994277954
          -0.07111900299787521 0.1854040026664734 -0.021988000720739365 -0.07210999727249146 0.18241800367832184 -0.017085999250411987
          -0.051068998873233795 0.1514669954776764 -0.013717999681830406 -0.06891299784183502 0.1567620038986206 0.004375999793410301
          -0.0670970007777214 0.15495100617408752 0.0051299999468028545 -0.0589740015566349 0.1555510014295578 0.007867000065743923
          -0.06301700323820114 0.1500920057296753 0 -0.0589740015566349 0.1555510014295578 -0.007867000065743923
          -0.0670970007777214 0.15495100617408752 -0.0051299999468028545 -0.08123499900102615 0.14910699427127838 -0.00002099999983329326
          -0.06891299784183502 0.1567620038986206 -0.004375999793410301 -0.07270299643278122 0.15165600180625916 0.0047610001638531685
          -0.06840600073337555 0.15047599375247955 0.004778999835252762 -0.0701880007982254 0.14243799448013306 0.003711000084877014
          -0.07190100103616714 0.14114299416542053 -0.000003000000106112566 -0.0701880007982254 0.14243799448013306 -0.003711000084877014
          -0.06840600073337555 0.15047599375247955 -0.004778999835252762 -0.08147499710321426 0.14505299925804138 0.004813999868929386
          -0.08189500123262405 0.14329299330711365 -0.00002300000051036477 -0.07270299643278122 0.15165600180625916 -0.0047610001638531685
          -0.08147499710321426 0.14505299925804138 -0.004813999868929386 -0.07827900350093842 0.1420920044183731 0.0056059998460114
          -0.07652699947357178 0.1405639946460724 -0.00002099999983329326 -0.07827900350093842 0.1420920044183731 -0.0056059998460114
          <InformationKey name="L2_NORM_RANGE" location="vtkDataArray" length="2">
            <Value index="0">
              0.15840170063
            </Value>
            <Value index="1">
              0.20450195973
            </Value>
          </InformationKey>
        </DataArray>
      </Points>
      <Verts>
        <DataArray type="Int64" Name="connectivity" format="ascii" RangeMin="1e+299" RangeMax="-1e+299">
        </DataArray>
        <DataArray type="Int64" Name="offsets" format="ascii" RangeMin="1e+299" RangeMax="-1e+299">
        </DataArray>
      </Verts>
      <Lines>
        <DataArray type="Int64" Name="connectivity" format="ascii" RangeMin="1e+299" RangeMax="-1e+299">
        </DataArray>
        <DataArray type="Int64" Name="offsets" format="ascii" RangeMin="1e+299" RangeMax="-1e+299">
        </DataArray>
      </Lines>
      <Strips>
        <DataArray type="Int64" Name="connectivity" format="ascii" RangeMin="1e+299" RangeMax="-1e+299">
        </DataArray>