<?xml version="1.0"?>
<VTKFile type="PolyData" version="0.1" byte_order="LittleEndian" header_type="UInt32" compressor="vtkZLibDataCompressor">
  <PolyData>
    <Piece NumberOfPoints="212" NumberOfVerts="0" NumberOfLines="0" NumberOfStrips="0" NumberOfPolys="424">
      <PointData Normals="Normals">
        <DataArray type="Float32" Name="Normals" NumberOfComponents="3" format="ascii" RangeMin="0.9999993646537935" RangeMax="1.0000006555284457">
          0.4635539948940277 -0.8860689997673035 0.00032900000223889947 0.23856399953365326 -0.9532740116119385 0.18535299599170685
          -0.28376200795173645 -0.9588950276374817 0.000014999999621068127 0.9097999930381775 -0.3101060092449188 0.275858998298645
          0.8970860242843628 -0.4418550133705139 0.00021399999968707561 0.23866400122642517 -0.9532939791679382 -0.18512199819087982
          0.9098979830741882 -0.3100599944591522 -0.27558600902557373 0.285427987575531 -0.8293830156326294 0.4802649915218353
          0.04607100039720535 -0.6715270280838013 0.7395470142364502 -0.604515016078949 -0.7964410185813904 -0.015576999634504318
          -0.6986250281333923 -0.7154880166053772 -0.000014000000192027073 -0.6380730271339417 -0.7521340250968933 0.16479599475860596
          -0.36012300848960876 -0.6009719967842102 0.7135429978370667 0.28542599081993103 -0.829384982585907 -0.48026201128959656
          0.04607599973678589 -0.6715250015258789 -0.7395480275154114 -0.6045129895210266 -0.796442985534668 0.015550999902188778
          -0.6380699872970581 -0.7521370053291321 -0.164792001247406 -0.3601189851760864 -0.6009699702262878 -0.7135469913482666
          0.9994590282440186 -0.032885998487472534 0.0001610000035725534 0.9466530084609985 0.012532999739050865 0.32201001048088074
          0.695248007774353 -0.023726999759674072 0.7183780074119568 0.9467509984970093 0.012539999559521675 -0.32172200083732605
          0.695248007774353 -0.02373499982059002 -0.7183780074119568 0.2821109890937805 0.08873199671506882 0.955269992351532
          -0.9684399962425232 -0.24675899744033813 -0.035130999982357025 -0.9991329908370972 0.04163099825382233 -0.000018999999156221747
          -0.9684399962425232 -0.24675999581813812 0.03512699902057648 -0.2627260088920593 0.02549700066447258 0.9645339846611023
          -0.8259879946708679 -0.2185409963130951 0.519599974155426 -0.976777970790863 -0.0919409990310669 -0.19352500140666962
          0.28210899233818054 0.08873499929904938 -0.955269992351532 -0.8259879946708679 -0.2185409963130951 -0.5195990204811096
          -0.2627260088920593 0.025490999221801758 -0.9645339846611023 -0.976777970790863 -0.0919400006532669 0.1935259997844696
          0.9441379904747009 -0.32955101132392883 0.0003480000013951212 0.8452889919281006 -0.3906950056552887 0.3644770085811615
          0.6701970100402832 0.04356599971652031 0.7409039735794067 0.8453919887542725 -0.390720009803772 -0.3642120063304901
          0.6701930165290833 0.04356300085783005 -0.7409070134162903 0.2678360044956207 0.09719300270080566 0.958549976348877
          -0.8899499773979187 0.3716360032558441 -0.26434099674224854 -0.8915770053863525 0.4528689980506897 -0.00007400000322377309
          -0.889959990978241 0.37163200974464417 0.2643119990825653 -0.14016500115394592 0.06419400125741959 0.9880449771881104
          -0.24357900023460388 -0.49025699496269226 0.8368499875068665 -0.8529279828071594 -0.2758210003376007 -0.44321098923683167
          0.26783400774002075 0.09719300270080566 -0.958549976348877 -0.24358199536800385 -0.4902600049972534 -0.8368470072746277
          -0.14016999304294586 0.06419199705123901 -0.988044023513794 -0.8529289960861206 -0.27582401037216187 0.4432080090045929
          0.914122998714447 -0.40543800592422485 0.00020399999630171806 0.8413439989089966 -0.4390999972820282 0.31516900658607483
          0.4658859968185425 -0.4116489887237549 0.7832599878311157 0.8413969874382019 -0.4391059875488281 -0.31501901149749756
          0.4658840000629425 -0.4116480052471161 -0.7832610011100769 0.09925299882888794 -0.3513079881668091 0.9309840202331543
          -0.8781269788742065 0.40247800946235657 -0.2586579918861389 -0.33340299129486084 0.27496200799942017 -0.9017980098724365
          -0.9316710233688354 0.3633039891719818 -0.00014800000644754618 -0.8781579732894897 0.4024670124053955 0.25857099890708923
          -0.33340200781822205 0.27495500445365906 0.9017999768257141 -0.11182399839162827 -0.28200700879096985 0.9528729915618896
          0.2306240051984787 0.01570099964737892 0.9729160070419312 -0.4687710106372833 -0.871845006942749 0.14191600680351257
          -0.5585759878158569 -0.41831299662590027 0.7162449955940247 0.034745000302791595 -0.024869000539183617 0.9990869760513306
          0.6802520155906677 -0.14916199445724487 -0.7176409959793091 0.09925200045108795 -0.35131600499153137 -0.9309809803962708
          0.23062600195407867 0.015698999166488647 -0.9729160070419312 -0.11182499676942825 -0.2820050120353699 -0.9528740048408508
          -0.5585659742355347 -0.41832399368286133 -0.716247022151947 -0.4687710106372833 -0.871845006942749 -0.1419149935245514
          0.03474999964237213 -0.024876000359654427 -0.9990860223770142 0.6804249882698059 -0.14915600419044495 0.717477023601532
          0.9791839718818665 0.20297500491142273 0.00016900000628083944 0.8907170295715332 0.3252730071544647 0.3175230026245117
          0.4983539879322052 -0.41370001435279846 0.7619029879570007 0.8907589912414551 0.32528600096702576 -0.3173919916152954
          0.4983519911766052 -0.4137069880962372 -0.761900007724762 0.04724999889731407 -0.3749980032444 0.9258210062980652
          -0.21394899487495422 0.9122290015220642 -0.34937599301338196 -0.27003100514411926 0.08161500096321106 -0.9593870043754578
          -0.4383009970188141 0.8988280296325684 -0.00022699999681208283 -0.21398000419139862 0.9122740030288696 0.3492409884929657
          -0.270022988319397 0.08161299675703049 0.9593889713287354 -0.20882700383663177 -0.09371999651193619 0.9734519720077515
          -0.19616100192070007 0.35692399740219116 0.9133049845695496 0.23860499262809753 0.6730980277061462 0.7000049948692322
          -0.3645319938659668 -0.4663110077381134 0.806020975112915 -0.5301290154457092 -0.4054909944534302 0.7446749806404114
          0.4146290123462677 -0.2809099853038788 0.8655470013618469 0.682220995426178 -0.5662789940834045 0.4624969959259033
          0.21265099942684174 0.18236799538135529 0.9599589705467224 -0.6586419939994812 -0.33169400691986084 0.6754040122032166
          0.919277012348175 -0.39361101388931274 -0.00022000000171829015 0.5273879766464233 -0.7144439816474915 -0.45981699228286743
          -0.21374200284481049 0.9768900275230408 0.00004999999873689376 -0.24901099503040314 0.6255760192871094 -0.7393559813499451
          0.04724299907684326 -0.3750010132789612 -0.925819993019104 -0.196151003241539 0.3569279909133911 -0.9133059978485107
          -0.20882000029087067 -0.09371300041675568 -0.9734539985656738 0.23860600590705872 0.6731029748916626 -0.699999988079071
          -0.5301259756088257 -0.4054949879646301 -0.744674026966095 -0.3646239936351776 -0.4655170142650604 -0.8064389824867249
          0.4146080017089844 -0.28091898560523987 -0.8655539751052856 0.6822230219841003 -0.5662699937820435 -0.46250399947166443
          -0.6586459875106812 -0.3316980004310608 -0.6753969788551331 0.21265800297260284 0.18236300349235535 -0.9599589705467224
          0.5273669958114624 -0.7145000100135803 0.45975300669670105 -0.24891799688339233 0.6255819797515869 0.7393829822540283
          0.365539014339447 0.9307960271835327 -0.000003000000106112566 0.7007840275764465 0.5022600293159485 0.5065929889678955
          0.431331992149353 0.3776960074901581 0.8193280100822449 0.7007830142974854 0.5022690296173096 -0.5065860152244568
          0.43132999539375305 0.3777010142803192 -0.8193269968032837 -0.08310600370168686 0.4731450080871582 0.8770560026168823
          0.18585699796676636 0.9743340015411377 -0.12700699269771576 0.32286399602890015 0.8793849945068359 0.3499169945716858
          -0.4207099974155426 0.7405959963798523 -0.5239459872245789 0.10541699826717377 0.9238460063934326 0.36796098947525024
          0.32286399602890015 0.8793849945068359 -0.349916011095047 0.1860249936580658 0.9742709994316101 0.12724199891090393
          -0.4207099974155426 0.7405959963798523 0.5239459872245789 0.10543599724769592 0.9238479733467102 -0.36795100569725037
          0.5112379789352417 0.4533250033855438 0.7301589846611023 0.572314977645874 0.46884000301361084 0.6727889776229858
          0.6328150033950806 0.12696599960327148 0.7638220191001892 -0.11694099754095078 -0.7908620238304138 0.6007180213928223
          0.6096749901771545 0.015652000904083252 0.7924969792366028 -0.7140870094299316 0.5254960060119629 0.4625299870967865
          -0.1215749979019165 0.2242169976234436 0.9669259786605835 -0.908748984336853 -0.33082500100135803 -0.25442200899124146
          -0.7999749779701233 0.5234529972076416 -0.2933200001716614 0.7864120006561279 -0.5356330275535583 0.3076559901237488
          -0.00994499959051609 0.2517069876194 0.967752993106842 0.1084349974989891 -0.04032199829816818 0.9932860136032104
          -0.9489610195159912 -0.15409299731254578 0.27518901228904724 -0.8695769906044006 0.45055198669433594 -0.20208700001239777
          -0.2662779986858368 -0.9638959765434265 -0.00011999999696854502 -0.37103399634361267 -0.8441280126571655 -0.38701701164245605
          -0.6862959861755371 0.727321982383728 0.00019500000053085387 -0.3199000060558319 0.8786460161209106 0.35446399450302124
          -0.5781019926071167 0.7961090207099915 0.1789100021123886 -0.7553719878196716 0.6198220252990723 -0.2126840054988861
          -0.31972000002861023 0.8787829875946045 -0.3542869985103607 -0.5779740214347839 0.7962380051612854 -0.1787489950656891
          -0.7553640007972717 0.6198099851608276 0.21274499595165253 -0.6742770075798035 0.5249950289726257 -0.5193560123443604
          -0.08310099691152573 0.47315001487731934 -0.87705397605896 0.511231005191803 0.4533340036869049 -0.7301589846611023
          0.571931004524231 0.4692550003528595 -0.6728259921073914 -0.12156999856233597 0.22422300279140472 -0.9669250249862671
          -0.7140859961509705 0.5254909992218018 -0.4625369906425476 -0.11529699712991714 -0.7891299724578857 -0.6033089756965637
          -0.9080229997634888 -0.3332839906215668 0.2538039982318878 -0.7999820113182068 0.5234490036964417 0.29330798983573914
          0.6314949989318848 0.12922999262809753 -0.7645350098609924 0.6091799736022949 0.017037000507116318 -0.7928490042686462
          0.7864090204238892 -0.5356349945068359 -0.3076620101928711 -0.009943000040948391 0.25171399116516113 -0.9677510261535645
          -0.9489700198173523 -0.15408800542354584 -0.2751609981060028 0.10842999815940857 -0.04032599925994873 -0.9932860136032104
          -0.8695669770240784 0.45055800676345825 0.20211799442768097 -0.3709290027618408 -0.8441929817199707 0.3869769871234894
          -0.674278974533081 0.5249950289726257 0.519353985786438 -0.6712290048599243 0.6758270263671875 -0.30448099970817566
          -0.598891019821167 0.3435930013656616 -0.723376989364624 -0.6715379953384399 0.6746079921722412 0.3064970076084137
          -0.5991449952125549 0.3411639928817749 0.7243160009384155 -0.6647099852561951 -0.11160200089216232 0.7387189865112305
          -0.8570520281791687 -0.49990999698638916 0.12470900267362595 -0.7837399840354919 0.4601210057735443 0.41718199849128723
          -0.9173309803009033 -0.10350699722766876 0.3844349980354309 -0.8347569704055786 -0.3646939992904663 0.4125269949436188
          -0.651777982711792 0.7153139710426331 0.25201401114463806 0.17298200726509094 -0.9519829750061035 0.25259900093078613
          -0.02471099980175495 -0.9533309936523438 -0.300915002822876 0.6130269765853882 -0.7900620102882385 -0.000048999998398358
          -0.02473299950361252 -0.953361988067627 0.3008140027523041 -0.6096810102462769 0.604544997215271 0.5126540064811707
          -0.7535499930381775 0.6573870182037354 -0.0021830000914633274 -0.7340490221977234 0.38886600732803345 0.5567359924316406
          -0.6097409725189209 0.6045529842376709 -0.5125740170478821 -0.733722984790802 0.3891359865665436 -0.5569779872894287
          -0.6517810225486755 0.7153120040893555 -0.2520129978656769 -0.9173290133476257 -0.10351400077342987 -0.38443800806999207
          -0.7837409973144531 0.46011701226234436 -0.4171839952468872 -0.8347579836845398 -0.3646950125694275 -0.4125249981880188
          -0.6647099852561951 -0.10970199853181839 -0.7390030026435852 -0.8562510013580322 -0.5007370114326477 -0.12687599658966064
          0.1729850023984909 -0.9519829750061035 -0.252595990896225 -0.6444140076637268 0.260221004486084 0.7190380096435547
          -0.16139699518680573 -0.9133129715919495 0.3739120066165924 -0.325080007314682 -0.9057779908180237 -0.27182498574256897
          0.5043389797210693 -0.863506019115448 -0.00011500000255182385 -0.325082004070282 -0.9057790040969849 0.271820992231369
          -0.15726499259471893 -0.9115449786186218 -0.379938006401062 -0.5431420207023621 0.8396360278129578 -0.0028979999478906393
          -0.6451449990272522 0.25835999846458435 -0.7190539836883545 -0.12207499891519547 0.22101899981498718 0.9675989747047424
          -0.07523799687623978 -0.040373001247644424 0.9963480234146118 0.40555301308631897 -0.7773900032043457 0.48082399368286133
          -0.0633620023727417 -0.9979900121688843 -0.0010359999723732471 0.402646005153656 -0.7759259939193726 -0.4856080114841461
          -0.08338599652051926 -0.038724999874830246 -0.995764970779419 -0.7611209750175476 0.32157498598098755 0.5632799863815308
          -0.9844130277633667 0.17586900293827057 -0.0009970000246539712 -0.12760700285434723 0.22124899923801422 -0.9668329954147339
          -0.7603870034217834 0.32054999470710754 -0.5648530125617981 -0.48002898693084717 -0.5780220031738281 0.6598960161209106
          -0.7932329773902893 -0.6089180111885071 -0.0011569999624043703 -0.47858598828315735 -0.578013002872467 -0.6609510183334351
          <InformationKey name="L2_NORM_RANGE" location="vtkDataArray" length="2">
            <Value index="0">
              0.99999936465
            </Value>
            <Value index="1">
              1.0000006555
            </Value>
          </InformationKey>
        </DataArray>
      </PointData>
      <CellData>
      </CellData>
      <Points>
        <DataArray type="Float32" Name="Points" NumberOfComponents="3" format="ascii" RangeMin="0.3210700722017414" RangeMax="0.36454838059248734">
          -0.04841599985957146 0.3173980116844177 0.0006200000061653554 -0.048914000391960144 0.3178290128707886 0.007455000188201666
          -0.05910100042819977 0.32105201482772827 0.0006009999779053032 -0.04702800139784813 0.32059600949287415 0.008824000135064125
          -0.04742699861526489 0.3183780014514923 0.0006210000137798488 -0.048914000391960144 0.3178290128707886 -0.006258000154048204
          -0.04702800139784813 0.32059600949287415 -0.007627000100910664 -0.052014000713825226 0.319366991519928 0.014569000340998173
          -0.05713300034403801 0.3213210105895996 0.018029000610113144 -0.06883300095796585 0.32367798686027527 0.004720999859273434
          -0.06887300312519073 0.32393398880958557 0.0006009999779053032 -0.06906300038099289 0.3239719867706299 0.012733999639749527
          -0.06539399921894073 0.3238619863986969 0.018122000619769096 -0.052014000713825226 0.319366991519928 -0.013372000306844711
          -0.05713300034403801 0.3213210105895996 -0.016831999644637108 -0.06883300095796585 0.32367798686027527 -0.003524000057950616
          -0.06906300038099289 0.3239719867706299 -0.011536999605596066 -0.06539399921894073 0.3238619863986969 -0.01692499965429306
          -0.04693799838423729 0.32213300466537476 0.0006210000137798488 -0.047857001423835754 0.3228600025177002 0.009403999894857407
          -0.05086800083518028 0.3226659893989563 0.015440000221133232 -0.047857001423835754 0.3228600025177002 -0.008206999860703945
          -0.05086800083518028 0.3226659893989563 -0.01424300018697977 -0.056894998997449875 0.3254370093345642 0.01862500049173832
          -0.07105500251054764 0.3273630142211914 0.0048420000821352005 -0.07105500251054764 0.3272550106048584 0.0006009999779053032
          -0.07105500251054764 0.3273630142211914 -0.003645000047981739 -0.06521700322628021 0.3283500075340271 0.01875299960374832
          -0.07120300084352493 0.3252420127391815 0.014228000305593014 -0.07147099822759628 0.3287380039691925 0.008662999607622623
          -0.056894998997449875 0.3254370093345642 -0.017427999526262283 -0.07120300084352493 0.3252420127391815 -0.013031000271439552
          -0.06521700322628021 0.3283500075340271 -0.017556000500917435 -0.07147099822759628 0.3287380039691925 -0.007466000039130449
          -0.04465100169181824 0.32954999804496765 0.0006230000290088356 -0.04596399888396263 0.32912999391555786 0.009096999652683735
          -0.0516900010406971 0.32540398836135864 0.015069999732077122 -0.04596399888396263 0.32912999391555786 -0.007899999618530273
          -0.0516900010406971 0.32540398836135864 -0.01387299969792366 -0.056060001254081726 0.32872700691223145 0.01699800044298172
          -0.0693110004067421 0.3328860104084015 0.006039000116288662 -0.06892500072717667 0.3327620029449463 0.0006019999855197966
          -0.0693110004067421 0.3328860104084015 -0.0048420000821352005 -0.06433399766683578 0.3311710059642792 0.017781000584363937
          -0.06870599836111069 0.33150699734687805 0.016845999285578728 -0.07061100006103516 0.33386901021003723 0.008919999934732914
          -0.056060999631881714 0.32872700691223145 -0.015800999477505684 -0.06870599836111069 0.33150699734687805 -0.01564900018274784
          -0.06433399766683578 0.3311710059642792 -0.0165839996188879 -0.07061100006103516 0.33386901021003723 -0.0077229999005794525
          -0.04339500144124031 0.3323509991168976 0.000623999978415668 -0.04395399987697601 0.33223599195480347 0.009998999536037445
          -0.05032600089907646 0.3312869966030121 0.015626000240445137 -0.04395399987697601 0.33223599195480347 -0.008802000433206558
          -0.05032600089907646 0.3312869966030121 -0.014429000206291676 -0.054055001586675644 0.3328630030155182 0.017072999849915504
          -0.06587900221347809 0.33906200528144836 0.006219999864697456 -0.06729699671268463 0.3399839997291565 0.009298999793827534
          -0.06530000269412994 0.33892199397087097 0.0006050000083632767 -0.06587900221347809 0.33906200528144836 -0.005022999830543995
          -0.06729699671268463 0.3399839997291565 -0.008101999759674072 -0.06170700117945671 0.336201012134552 0.01790500059723854
          -0.06513399630784988 0.33838099241256714 0.018240999430418015 -0.07275500148534775 0.3326599895954132 0.015235000289976597
          -0.0706849992275238 0.33428600430488586 0.018542999401688576 -0.06800000369548798 0.3383849859237671 0.02205600030720234
          -0.07566999644041061 0.3373520076274872 0.003792000003159046 -0.054055001586675644 0.3328630030155182 -0.015876000747084618
          -0.06513399630784988 0.33838099241256714 -0.017044000327587128 -0.06170700117945671 0.336201012134552 -0.016707999631762505
          -0.0706849992275238 0.33428600430488586 -0.01734600029885769 -0.07275500148534775 0.3326599895954132 -0.014038000255823135
          -0.06800000369548798 0.3383849859237671 -0.020858999341726303 -0.07566999644041061 0.3373520076274872 -0.0025949999690055847
          -0.04255399852991104 0.3357029855251312 0.0006249999860301614 -0.04324499890208244 0.3357749879360199 0.010172000154852867
          -0.04802500084042549 0.333514004945755 0.01650499925017357 -0.04324499890208244 0.3357749879360199 -0.008975000120699406
          -0.04802500084042549 0.333514004945755 -0.015308000147342682 -0.05282999947667122 0.33497801423072815 0.018813999369740486
          -0.06472299993038177 0.34462499618530273 0.007765999995172024 -0.06567300111055374 0.3435699939727783 0.009940000250935555
          -0.06365399807691574 0.34343600273132324 0.0006060000159777701 -0.06472299993038177 0.34462499618530273 -0.006568999961018562
          -0.06567300111055374 0.3435699939727783 -0.008743000216782093 -0.05909699946641922 0.3387320041656494 0.019693000242114067
          -0.06280499696731567 0.3401069939136505 0.01764800027012825 -0.06735099852085114 0.3429409861564636 0.017688000574707985
          -0.07734300196170807 0.34100601077079773 0.020406000316143036 -0.07685200124979019 0.337352991104126 0.015318999998271465
          -0.07618899643421173 0.33196699619293213 0.021786000579595566 -0.07484599947929382 0.3312540054321289 0.009619999676942825
          -0.07349599897861481 0.33865201473236084 0.020975999534130096 -0.0762849971652031 0.33389198780059814 0.019122999161481857
          -0.07755299657583237 0.33343300223350525 0.0006019999855197966 -0.08267399668693542 0.3253740072250366 0.004980000201612711
          -0.08199500292539597 0.34068599343299866 0.00060299999313429 -0.0761210024356842 0.3424470126628876 0.007209000177681446
          -0.05282999947667122 0.33497801423072815 -0.0176170002669096 -0.06280499696731567 0.3401069939136505 -0.016450999304652214
          -0.05909699946641922 0.3387320041656494 -0.01849599927663803 -0.06735099852085114 0.3429409861564636 -0.01649099960923195
          -0.07685200124979019 0.337352991104126 -0.014121999964118004 -0.07734300196170807 0.34100601077079773 -0.019208999350667
          -0.07618899643421173 0.33196699619293213 -0.020587999373674393 -0.07484599947929382 0.3312540054321289 -0.008422999642789364
          -0.0762849971652031 0.33389198780059814 -0.01792600005865097 -0.07349599897861481 0.33865201473236084 -0.01977900043129921
          -0.08267399668693542 0.3253740072250366 -0.0037819999270141125 -0.0761210024356842 0.3424470126628876 -0.006012000143527985
          -0.05418099835515022 0.340489000082016 0.0006070000235922635 -0.04712300002574921 0.33715200424194336 0.016724999994039536
          -0.05240200087428093 0.33941298723220825 0.019694000482559204 -0.04712300002574921 0.33715200424194336 -0.015527999959886074
          -0.05240200087428093 0.33941298723220825 -0.018496999517083168 -0.05937400087714195 0.34183400869369507 0.019811000674962997
          -0.07332199811935425 0.34891799092292786 0.014302999712526798 -0.06673700362443924 0.34420400857925415 0.01267900038510561
          -0.07370299845933914 0.34685298800468445 0.009217999875545502 -0.06338000297546387 0.34368500113487244 0.015261000022292137
          -0.06673700362443924 0.34420400857925415 -0.011482000350952148 -0.07332199811935425 0.34891799092292786 -0.013105999678373337
          -0.07370299845933914 0.34685298800468445 -0.00802099984139204 -0.06338000297546387 0.34368500113487244 -0.014063999988138676
          -0.07412099838256836 0.34335198998451233 0.018787000328302383 -0.07272300124168396 0.34538400173187256 0.016354000195860863
          -0.08351600170135498 0.35336199402809143 0.03246099874377251 -0.08106700330972672 0.34358999133110046 0.018664000555872917
          -0.07603199779987335 0.34532299637794495 0.01882000081241131 -0.08766700327396393 0.33221301436424255 0.011427000164985657
          -0.08426299691200256 0.3327290117740631 0.01385399978607893 -0.08602599799633026 0.3462989926338196 0.022292999550700188
          -0.0802989974617958 0.34114301204681396 0.011459000408649445 -0.07568000257015228 0.32987600564956665 0.010874999687075615
          -0.08837699890136719 0.3291879892349243 0.015199000015854836 -0.0763780027627945 0.3399670124053955 0.02313699945807457
          -0.07806699723005295 0.338795006275177 0.02115200087428093 -0.07739699631929398 0.344310998916626 0.021441999822854996
          -0.08366499841213226 0.3298960030078888 0.0006009999779053032 -0.08267399668693542 0.3245440125465393 0.0063390000723302364
          -0.09272799640893936 0.33374300599098206 0.0006019999855197966 -0.08354800194501877 0.33836600184440613 0.004844999872148037
          -0.08079499751329422 0.33650699257850647 0.007708000019192696 -0.07987499982118607 0.33968299627304077 0.00950899999588728
          -0.08354800194501877 0.33836600184440613 -0.003648000070825219 -0.08079499751329422 0.33650699257850647 -0.006510999985039234
          -0.07987499982118607 0.33968299627304077 -0.008311999961733818 -0.07684499770402908 0.34313198924064636 0.010320999659597874
          -0.05937400087714195 0.34183400869369507 -0.01861399970948696 -0.07412099838256836 0.34335198998451233 -0.017589999362826347
          -0.07272300124168396 0.34538400173187256 -0.015157000161707401 -0.08426299691200256 0.3327290117740631 -0.012656999751925468
          -0.08766700327396393 0.33221301436424255 -0.010230000130832195 -0.08106700330972672 0.34358999133110046 -0.01746699959039688
          -0.08602599799633026 0.3462989926338196 -0.0210960004478693 -0.0802989974617958 0.34114301204681396 -0.010262000374495983
          -0.08351600170135498 0.35336199402809143 -0.031182000413537025 -0.07603199779987335 0.34532299637794495 -0.017622999846935272
          -0.07568000257015228 0.32987600564956665 -0.009677999652922153 -0.08837699890136719 0.3291879892349243 -0.014001999981701374
          -0.07806699723005295 0.338795006275177 -0.019954999908804893 -0.0763780027627945 0.3399670124053955 -0.021940000355243683
          -0.07739699631929398 0.344310998916626 -0.02024500072002411 -0.08267399668693542 0.3245440125465393 -0.005142000038176775
          -0.07684499770402908 0.34313198924064636 -0.009123999625444412 -0.08843900263309479 0.3526020050048828 0.027310999110341072
          -0.07947999984025955 0.3455600142478943 0.012524000369012356 -0.08843900263309479 0.3526020050048828 -0.02603299915790558
          -0.07947999984025955 0.3455600142478943 -0.011327000334858894 -0.0873510017991066 0.3510119915008545 0.03589800000190735
          -0.08919300138950348 0.3498310148715973 0.028037000447511673 -0.0900920033454895 0.33081498742103577 0.009387999773025513
          -0.09116700291633606 0.3275650143623352 0.00891599990427494 -0.0896959975361824 0.3243420124053955 0.014991000294685364
          -0.08712799847126007 0.3336910009384155 0.00817899964749813 -0.0840350016951561 0.3232190012931824 0.012008000165224075
          -0.08386199921369553 0.3275049924850464 0.005164000205695629 -0.08646000176668167 0.326229989528656 0.0006000000284984708
          -0.08386199921369553 0.3275049924850464 -0.003967000171542168 -0.09101899713277817 0.3351370096206665 0.004184000194072723
          -0.10058800131082535 0.3266569972038269 0.0005849999724887311 -0.09170400351285934 0.3317739963531494 0.0040870001539587975
          -0.09101899713277817 0.3351370096206665 -0.0029869999270886183 -0.09170400351285934 0.3317739963531494 -0.0028899998869746923
          -0.08712799847126007 0.3336910009384155 -0.006982000079005957 -0.09116700291633606 0.3275650143623352 -0.007718999870121479
          -0.0900920033454895 0.33081498742103577 -0.008191999979317188 -0.0896959975361824 0.3243420124053955 -0.013794000260531902
          -0.0873510017991066 0.3510119915008545 -0.034619998186826706 -0.08919300138950348 0.3498310148715973 -0.02675900049507618
          -0.0840350016951561 0.3232190012931824 -0.010811000131070614 -0.09273499995470047 0.3286910057067871 0.004238000139594078
          -0.09243500232696533 0.3268760144710541 0.004865000024437904 -0.08880600333213806 0.3244889974594116 0.007141999900341034
          -0.09333399683237076 0.3232389986515045 0.000598000013269484 -0.08880600333213806 0.3244889974594116 -0.0059449998661875725
          -0.09243500232696533 0.3268760144710541 -0.003667999990284443 -0.10680700093507767 0.3205229938030243 0.0006210000137798488
          -0.09273499995470047 0.3286910057067871 -0.0030410001054406166 -0.10225699841976166 0.31828200817108154 0.0033950000070035458
          -0.09604799747467041 0.3222070038318634 0.004573000129312277 -0.10435199737548828 0.31272000074386597 0.00278700003400445
          -0.1049090027809143 0.31266099214553833 0.0006360000115819275 -0.10435199737548828 0.31272000074386597 -0.0015089999651536345
          -0.09604799747467041 0.3222070038318634 -0.0033760000951588154 -0.1092509999871254 0.3184509873390198 0.0034260000102221966
          -0.11012300103902817 0.31765100359916687 0.0006259999936446548 -0.10225699841976166 0.31828200817108154 -0.002116000046953559
          -0.1092509999871254 0.3184509873390198 -0.0021470000501722097 -0.10869999974966049 0.31538501381874084 0.0038840000052005053
          -0.10755199939012527 0.31366899609565735 0.0006200000061653554 -0.10869999974966049 0.31538501381874084 -0.002606000052765012
          <InformationKey name="L2_NORM_RANGE" location="vtkDataArray" length="2">
            <Value index="0">
              0.3210700722
            </Value>
            <Value index="1">
              0.36454838059
            </Value>
          </InformationKey>
        </DataArray>
      </Points>
      <Verts>
        <DataArray type="Int64" Name="connectivity" format="ascii" RangeMin="1e+299" RangeMax="-1e+299">
        </DataArray>
        <DataArray type="Int64" Name="offsets" format="ascii" RangeMin="1e+299" RangeMax="-1e+299">
        </DataArray>
      </Verts>
      <Lines>
        <DataArray type="Int64" Name="connectivity" format="ascii" RangeMin="1e+299" RangeMax="-1e+299">
        </DataArray>
        <DataArray type="Int64" Name="offsets" format="ascii" RangeMin="1e+299" RangeMax="-1e+299">
        </DataArray>
      </Lines>
      <Strips>
        <DataArray type="Int64" Name="connectivity" format="ascii" RangeMin="1e+299" RangeMax="-1e+299">
        </DataArray>
        <DataArray type="Int64" Name="offsets" format="ascii" RangeMin="1e+299" RangeMax="-1e+299">
        </DataArray>
      </Strips>
      <Polys>