<?xml version="1.0"?>
<VTKFile type="PolyData" version="0.1" byte_order="LittleEndian" header_type="UInt32" compressor="vtkZLibDataCompressor">
  <PolyData>
    <Piece NumberOfPoints="143" NumberOfVerts="0" NumberOfLines="0" NumberOfStrips="0" NumberOfPolys="282">
      <PointData Normals="Normals">
        <DataArray type="Float32" Name="Normals" NumberOfComponents="3" format="ascii" RangeMin="0.9999994381653113" RangeMax="1.0000007423849768">
          -0.16788800060749054 0.014787999913096428 -0.9856950044631958 0.01859699934720993 -0.19120100140571594 -0.981374979019165
          -0.4935069978237152 -0.24407899379730225 -0.8347920179367065 -0.8106420040130615 -0.0446770004928112 -0.5838350057601929
          0.5918939709663391 -0.13756200671195984 -0.794189989566803 0.3125529885292053 0.34215301275253296 -0.8861389756202698
          0.06390000134706497 0.3633820116519928 -0.9294459819793701 -0.31173598766326904 0.040376998484134674 -0.9493110179901123
          -0.7177820205688477 -0.17127899825572968 -0.6748719811439514 -0.36783599853515625 -0.6500440239906311 -0.6649360060691833
          0.14111199975013733 -0.6612150073051453 -0.7368059754371643 -0.7312430143356323 -0.11732099950313568 -0.6719520092010498
          -0.5952680110931396 -0.5003219842910767 -0.6287559866905212 -0.8322799801826477 -0.2596929967403412 -0.4897649884223938
          -0.8871970176696777 -0.23865100741386414 -0.39487698674201965 -0.9633740186691284 -0.17288999259471893 -0.20498600602149963
          -0.9118130207061768 -0.1534149944782257 -0.3808690011501312 0.8808810114860535 0.03173099830746651 -0.47227299213409424
          0.8618339896202087 -0.39235401153564453 -0.32140401005744934 0.8045430183410645 0.2680929899215698 -0.5299400091171265
          0.5699300169944763 0.6302300095558167 -0.5272480249404907 0.39381301403045654 0.576928973197937 -0.7155870199203491
          0.31232601404190063 -0.9331449866294861 -0.17802700400352478 0.6070340275764465 -0.7879250049591064 0.10336799919605255
          0.36347201466560364 0.4894869923591614 -0.7926480174064636 0.43230199813842773 0.11473999917507172 -0.8943989872932434
          -0.40344199538230896 -0.08121799677610397 -0.9113929867744446 -0.8314999938011169 -0.26297301054000854 -0.4893389940261841
          -0.2721549868583679 -0.8161050081253052 -0.5098090171813965 -0.1341090053319931 -0.9426310062408447 -0.3057129979133606
          -0.8206220269203186 -0.3431349992752075 -0.45698899030685425 -0.9430199861526489 -0.17049099504947662 -0.285737007856369
          -0.9513890147209167 -0.15412600338459015 0.26665401458740234 -0.8953260183334351 -0.04786499962210655 0.4428330063819885
          -0.9256389737129211 -0.24126499891281128 -0.2915189862251282 -0.8444460034370422 -0.5080469846725464 -0.1696999967098236
          -0.8322150111198425 -0.5115820169448853 0.21378099918365479 0.9491779804229736 -0.12654200196266174 0.28817999362945557
          0.9115750193595886 0.33010900020599365 0.2450679987668991 0.7787759900093079 -0.5881249904632568 0.21821600198745728
          0.7577630281448364 0.635837972164154 -0.1466509997844696 0.30251601338386536 0.9475399851799011 0.1032089963555336
          0.5543370246887207 0.8013650178909302 0.2247759997844696 0.3785800039768219 0.9090420007705688 -0.174127995967865
          0.5272560119628906 0.7668830156326294 -0.36591199040412903 0.1325789988040924 -0.9770879745483398 0.16649800539016724
          0.4991230070590973 -0.7243549823760986 0.4755899906158447 0.9316920042037964 0.3215790092945099 0.16892899572849274
          0.3775250017642975 0.03107300028204918 -0.9254779815673828 0.846045970916748 0.04941499978303909 -0.5308150053024292
          0.9307100176811218 0.10164099931716919 -0.3513509929180145 0.23226000368595123 -0.1962449997663498 -0.9526510238647461
          -0.3667280077934265 -0.2907699942588806 -0.8837209939956665 -0.7593100070953369 -0.21282200515270233 -0.6149430274963379
          -0.9080780148506165 -0.3864690065383911 -0.16135700047016144 -0.8693389892578125 -0.3786439895629883 0.31761300563812256
          0.016681000590324402 -0.9205250144004822 -0.39032700657844543 -0.39965900778770447 -0.7042919993400574 -0.5867239832878113
          0.35113099217414856 -0.9156579971313477 -0.19564500451087952 0.2961379885673523 -0.9539750218391418 -0.04726000130176544
          -0.6826670169830322 -0.7066159844398499 -0.18616899847984314 -0.676069974899292 0.2711850106716156 0.6851189732551575
          -0.14158500730991364 0.256074994802475 0.9562320113182068 -0.551235020160675 -0.5013740062713623 0.6669059991836548
          -0.5482699871063232 -0.031408000737428665 0.8357110023498535 -0.20202599465847015 0.7078970074653625 0.6768059730529785
          -0.5605189800262451 -0.7332980036735535 0.38482901453971863 0.5405359864234924 0.399617999792099 0.7403560280799866
          0.6683170199394226 -0.2360289990901947 0.7054380178451538 0.2930639982223511 0.8427510261535645 0.4515349864959717
          0.41997501254081726 0.7225329875946045 0.5491520166397095 0.5667880177497864 0.8155859708786011 0.11648999899625778
          0.5442420244216919 -0.7516800165176392 0.3725300133228302 0.6636509895324707 -0.3546690046787262 0.6586179733276367
          0.372857004404068 0.3770259916782379 0.8478379845619202 0.4558570086956024 0.39445599913597107 0.7978709936141968
          0.497749000787735 0.07220300287008286 0.8643109798431396 0.8707619905471802 0.02336299978196621 0.49114999175071716
          0.8962389826774597 -0.14589199423789978 -0.4188919961452484 0.9923880100250244 -0.11582300066947937 -0.04185299947857857
          0.9859970211982727 -0.040644001215696335 0.1617330014705658 0.06248600035905838 -0.07208999991416931 -0.9954389929771423
          0.5703409910202026 -0.10705800354480743 -0.8144009709358215 -0.714805006980896 -0.3533630073070526 -0.6034799814224243
          -0.6630730032920837 0.0650240033864975 -0.7457249760627747 -0.30426400899887085 0.14893899857997894 -0.9408720135688782
          -0.9193220138549805 -0.2016890048980713 0.3378880023956299 -0.9732660055160522 0.11628500372171402 -0.19806699454784393
          -0.22907599806785583 -0.49694499373435974 0.8370000123977661 -0.8775990009307861 -0.07277099788188934 -0.47384101152420044
          -0.14143599569797516 -0.22883300483226776 0.9631360173225403 -0.09317199885845184 -0.9412050247192383 0.32473498582839966
          0.5240910053253174 -0.7957850098609924 0.3034049868583679 -0.10388500243425369 0.655318021774292 0.7481750249862671
          0.2632240056991577 0.3808020055294037 0.88639897108078 0.36974000930786133 0.5860790014266968 0.7209740281105042
          0.19224299490451813 -0.28647199273109436 0.9386039972305298 0.08702699840068817 -0.721405029296875 0.6870239973068237
          0.059262000024318695 0.3422679901123047 0.9377319812774658 0.5101230144500732 0.5714939832687378 0.6427819728851318
          0.43916401267051697 0.6124119758605957 0.65733402967453 0.5883650183677673 0.3156450092792511 0.7444419860839844
          0.24751199781894684 0.6994860172271729 0.6704149842262268 0.3912859857082367 0.7375419735908508 0.550387978553772
          0.6725599765777588 -0.2900319993495941 0.6808410286903381 0.5414040088653564 -0.20890399813652039 0.8143960237503052
          0.9495639801025391 -0.029190000146627426 -0.3122110068798065 0.8932399749755859 -0.2841919958591461 0.3483630120754242
          0.8306369781494141 -0.2309570014476776 0.5066570043563843 -0.07285100221633911 0.5861449837684631 -0.8069239854812622
          0.43291500210762024 0.5757070183753967 -0.693647027015686 -0.6001949906349182 0.7456690073013306 -0.28938400745391846
          -0.5121549963951111 0.7628380060195923 -0.39468300342559814 -0.3697820007801056 0.7120720148086548 -0.5968379974365234
          -0.971219003200531 0.23813900351524353 0.004815000109374523 -0.7407029867172241 0.6336849927902222 0.22316600382328033
          -0.6243669986724854 0.30602800846099854 0.7186890244483948 -0.3936240077018738 -0.20793500542640686 0.8954460024833679
          -0.6727210283279419 0.7221720218658447 -0.1609790027141571 0.5465310215950012 -0.3660790026187897 0.7531870007514954
          0.3094089925289154 -0.29795700311660767 0.9030439853668213 0.7965710163116455 0.5427389740943909 -0.26628801226615906
          0.9997429847717285 -0.005896000191569328 0.021891999989748 0.7481489777565002 0.2970130145549774 0.5933430194854736
          0.29058998823165894 0.772691011428833 -0.5643630027770996 0.06257399916648865 0.7513800263404846 -0.6568959951400757
          -0.2214210033416748 0.8261709809303284 -0.5180870294570923 0.3489849865436554 0.9366689920425415 -0.029332000762224197
          -0.3465310037136078 0.9291729927062988 0.12865999341011047 -0.05071600154042244 0.9631549715995789 0.26412200927734375
          -0.3882159888744354 0.9178910255432129 -0.08224499970674515 -0.36877501010894775 0.8347309827804565 0.4089359939098358
          -0.20671699941158295 0.7749699950218201 0.5972350239753723 -0.3467400074005127 0.3487569987773895 0.8707119822502136
          0.05152599886059761 0.39162498712539673 0.9186810255050659 0.5335839986801147 0.23958900570869446 0.8111010193824768
          0.8133370280265808 0.5815960168838501 0.015155999921262264 0.1389549970626831 0.9343879818916321 0.3280409872531891
          0.3984450101852417 0.7546899914741516 -0.5212330222129822 -0.03866500034928322 0.9688829779624939 -0.24448199570178986
          -0.21696999669075012 0.9413579702377319 0.25839701294898987 -0.20933100581169128 0.9574779868125916 0.1985359936952591
          0.12159000337123871 0.7455310225486755 0.6552860140800476
          <InformationKey name="L2_NORM_RANGE" location="vtkDataArray" length="2">
            <Value index="0">
              0.99999943817
            </Value>
            <Value index="1">
              1.0000007424
            </Value>
          </InformationKey>
        </DataArray>
      </PointData>
      <CellData>
      </CellData>
      <Points>
        <DataArray type="Float32" Name="Points" NumberOfComponents="3" format="ascii" RangeMin="0.07935814959746994" RangeMax="0.10960367238631565">
          0.024320000782608986 -0.08680199831724167 -0.05852700024843216 0.024971000850200653 -0.08819899708032608 -0.058361999690532684
          0.023482000455260277 -0.08859600126743317 -0.057583000510931015 0.02092999964952469 -0.0866210013628006 -0.0559069998562336
          0.028528999537229538 -0.08904600143432617 -0.05637200176715851 0.02527100034058094 -0.0833669975399971 -0.05762400105595589
          0.024274999275803566 -0.08340699970722198 -0.05768999829888344 0.02170800045132637 -0.0812549963593483 -0.057172998785972595
          0.01935099996626377 -0.08026900142431259 -0.055406998842954636 0.023941000923514366 -0.08922000229358673 -0.05745600163936615
          0.026050999760627747 -0.08927399665117264 -0.058003999292850494 0.020919999107718468 -0.08718699961900711 -0.05608399957418442
          0.022634999826550484 -0.08868200331926346 -0.056836001574993134 0.020702000707387924 -0.088128000497818 -0.055181000381708145
          0.01928500086069107 -0.08193600177764893 -0.05452200025320053 0.019345000386238098 -0.08532100170850754 -0.05284100025892258
          0.02005700021982193 -0.08711700141429901 -0.05430399999022484 0.02975199930369854 -0.08584299683570862 -0.05551600083708763
          0.029046999290585518 -0.08847899734973907 -0.05604400113224983 0.029642999172210693 -0.08516599982976913 -0.05554300174117088
          0.02857300080358982 -0.08396700024604797 -0.05599600076675415 0.0261049997061491 -0.08279500156641006 -0.05685900151729584
          0.02748499996960163 -0.0899839997291565 -0.05577300116419792 0.02844100072979927 -0.08934599906206131 -0.05522000044584274
          0.025141000747680664 -0.082846999168396 -0.05728499963879585 0.023439999669790268 -0.07756400108337402 -0.0571880005300045
          0.01830100081861019 -0.07516200095415115 -0.05581799894571304 0.015977000817656517 -0.0738229975104332 -0.05407999828457832
          0.022055000066757202 -0.0892769992351532 -0.055597998201847076 0.024785999208688736 -0.08974500000476837 -0.05698300153017044
          0.02060999907553196 -0.08948799967765808 -0.05442100018262863 0.020522000268101692 -0.08892600238323212 -0.05429999902844429
          0.0184749998152256 -0.08202899992465973 -0.05183599889278412 0.01931699924170971 -0.08477099984884262 -0.050244998186826706
          0.020529000088572502 -0.09014599770307541 -0.053394000977277756 0.02030700072646141 -0.09059400111436844 -0.052609000355005264
          0.020357999950647354 -0.09074799716472626 -0.051906000822782516 0.029916999861598015 -0.08681699633598328 -0.05409400165081024
          0.02971399948000908 -0.08489400148391724 -0.05409099906682968 0.02921699918806553 -0.08851200342178345 -0.054708000272512436
          0.029234999790787697 -0.08406200259923935 -0.05486999824643135 0.02698500081896782 -0.08294700086116791 -0.054944999516010284
          0.028909999877214432 -0.0837780013680458 -0.05414300039410591 0.026745999231934547 -0.08277600258588791 -0.056352999061346054
          0.025584999471902847 -0.08246800303459167 -0.056386999785900116 0.026148999109864235 -0.09013400226831436 -0.0545319989323616
          0.02769000083208084 -0.08892600238323212 -0.053068000823259354 0.02508999966084957 -0.07918299734592438 -0.05506499856710434
          0.023063000291585922 -0.07373599708080292 -0.05686800181865692 0.02382900007069111 -0.07395099848508835 -0.056251998990774155
          0.024354999884963036 -0.07592099905014038 -0.05585400015115738 0.02346399985253811 -0.06984899938106537 -0.05712300166487694
          0.017754999920725822 -0.06796199828386307 -0.05698100104928017 0.015135999768972397 -0.07079000025987625 -0.05383700132369995
          0.013855000026524067 -0.07009299844503403 -0.051461998373270035 0.017657000571489334 -0.07935900241136551 -0.05159899964928627
          0.021539000794291496 -0.09097900241613388 -0.05326100066304207 0.021020999178290367 -0.09033200144767761 -0.054009001702070236
          0.023413000628352165 -0.09090899676084518 -0.05216100066900253 0.024627000093460083 -0.08991800248622894 -0.05329899862408638
          0.020529000088572502 -0.09113200008869171 -0.05242300033569336 0.019809000194072723 -0.0835530012845993 -0.05014900118112564
          0.019881000742316246 -0.08190499991178513 -0.05052100121974945 0.021726999431848526 -0.0885469987988472 -0.0482649989426136
          0.020848000422120094 -0.08601699769496918 -0.047745998948812485 0.021053999662399292 -0.08451800048351288 -0.04831000044941902
          0.020857999101281166 -0.0908140018582344 -0.05132099986076355 0.027646999806165695 -0.08461300283670425 -0.05242199823260307
          0.028460999950766563 -0.08754199743270874 -0.05244499817490578 0.02749899961054325 -0.08334700018167496 -0.05360500141978264
          0.02541700005531311 -0.0831570029258728 -0.053585998713970184 0.026110999286174774 -0.08271300047636032 -0.05536400154232979
          0.025877000764012337 -0.08916699886322021 -0.05198900029063225 0.026290999725461006 -0.08794199675321579 -0.051134999841451645
          0.021719999611377716 -0.08171699941158295 -0.05096200108528137 0.022081000730395317 -0.08263300359249115 -0.050652001053094864
          0.019192000851035118 -0.07882100343704224 -0.05094800144433975 0.02441900037229061 -0.07596900314092636 -0.05455299839377403
          0.024418000131845474 -0.07178600132465363 -0.05542200058698654 0.024567000567913055 -0.07180699706077576 -0.054478999227285385
          0.024421999230980873 -0.07397700101137161 -0.05480799823999405 0.022345000877976418 -0.06381099671125412 -0.05862399935722351
          0.024745000526309013 -0.06374099850654602 -0.05822199955582619 0.01434400025755167 -0.0686890035867691 -0.05379100143909454
          0.014740999788045883 -0.06509300321340561 -0.05600700154900551 0.019276000559329987 -0.06482400000095367 -0.058591000735759735
          0.011827999725937843 -0.06647499650716782 -0.047756001353263855 0.012063000351190567 -0.06481699645519257 -0.051270999014377594
          0.015567000024020672 -0.0712440013885498 -0.04826600104570389 0.012732000090181828 -0.06591399759054184 -0.0537789985537529
          0.018355000764131546 -0.07914400100708008 -0.05029100179672241 0.02188199944794178 -0.09123499691486359 -0.05097400024533272
          0.02462499961256981 -0.08997700363397598 -0.050296999514102936 0.020755000412464142 -0.08382400125265121 -0.04911300167441368
          0.021104000508785248 -0.08259499818086624 -0.050301000475883484 0.021418999880552292 -0.08353900164365768 -0.05007699877023697
          0.022833000868558884 -0.08869899809360504 -0.048172999173402786 0.022505000233650208 -0.09023699909448624 -0.04946399852633476
          0.021716000512242317 -0.08509399741888046 -0.047481000423431396 0.02360299974679947 -0.08489499986171722 -0.04896799847483635
          0.02231300063431263 -0.08371999859809875 -0.050494998693466187 0.025969000533223152 -0.08615300059318542 -0.050880998373031616
          0.02696700021624565 -0.0837789997458458 -0.05277999863028526 0.02474600076675415 -0.08438999950885773 -0.05143800005316734
          0.025016000494360924 -0.08840300142765045 -0.04912399873137474 0.019193999469280243 -0.0728290006518364 -0.049580998718738556
          0.026277000084519386 -0.06322699785232544 -0.05607600137591362 0.025258999317884445 -0.06578099727630615 -0.05250599980354309
          0.024351999163627625 -0.07183600217103958 -0.05366000160574913 0.021914999932050705 -0.06231100112199783 -0.05826999992132187
          0.024701999500393867 -0.0620109997689724 -0.058028001338243484 0.012803000397980213 -0.0641380026936531 -0.05230199918150902
          0.015915999189019203 -0.06328500062227249 -0.05590000003576279 0.01990400068461895 -0.06166199967265129 -0.05698699876666069
          0.011969000101089478 -0.06415999680757523 -0.048781998455524445 0.012292000465095043 -0.06338399648666382 -0.04781800135970116
          0.013249999843537807 -0.06413599848747253 -0.04605000093579292 0.015096999704837799 -0.06591500341892242 -0.04482400044798851
          0.012215999886393547 -0.06358599662780762 -0.04899299889802933 0.019133999943733215 -0.06943800300359726 -0.048493001610040665
          0.017212999984622 -0.0655440017580986 -0.04434800148010254 0.025971999391913414 -0.06192699819803238 -0.0555649995803833
          0.026649000123143196 -0.06300699710845947 -0.05388600006699562 0.025722000747919083 -0.06184700131416321 -0.05041100084781647
          0.023869000375270844 -0.06125099956989288 -0.05660099908709526 0.022477999329566956 -0.06067299842834473 -0.05654599890112877
          0.021244000643491745 -0.0611019991338253 -0.05688999965786934 0.024560999125242233 -0.060478001832962036 -0.05396600067615509
          0.020468000322580338 -0.062084000557661057 -0.051419999450445175 0.02081199921667576 -0.061882998794317245 -0.04786999896168709
          0.021661000326275826 -0.060465000569820404 -0.05561099946498871 0.013597999699413776 -0.06314600259065628 -0.04659400135278702
          0.0155239999294281 -0.0630749985575676 -0.04558800160884857 0.015203000046312809 -0.06408599764108658 -0.044766999781131744
          0.01710899919271469 -0.06416100263595581 -0.04441500082612038 0.019415000453591347 -0.0633929967880249 -0.04610700160264969
          0.02628600038588047 -0.06156500056385994 -0.053068000823259354 0.02413799986243248 -0.06105399876832962 -0.0501680001616478
          0.023421000689268112 -0.060430001467466354 -0.05608699843287468 0.02302899956703186 -0.060029998421669006 -0.05557600036263466
          0.022276999428868294 -0.06028499826788902 -0.05490899831056595 0.022905999794602394 -0.06089499965310097 -0.05318000167608261
          0.017090000212192535 -0.06304600089788437 -0.04549200087785721
          <InformationKey name="L2_NORM_RANGE" location="vtkDataArray" length="2">
            <Value index="0">
              0.079358149597
            </Value>
            <Value index="1">
              0.10960367239
            </Value>
          </InformationKey>
        </DataArray>
      </Points>
      <Verts>
        <DataArray type="Int64" Name="connectivity" format="ascii" RangeMin="1e+299" RangeMax="-1e+299">
        </DataArray>
        <DataArray type="Int64" Name="offsets" format="ascii" RangeMin="1e+299" RangeMax="-1e+299">
        </DataArray>
      </Verts>
      <Lines>
        <DataArray type="Int64" Name="connectivity" format="ascii" RangeMin="1e+299" RangeMax="-1e+299">
        </DataArray>
        <DataArray type="Int64" Name="offsets" format="ascii" RangeMin="1e+299" RangeMax="-1e+299">
        </DataArray>
      </Lines>
      <Strips>
        <DataArray type="Int64" Name="connectivity" format="ascii" RangeMin="1e+299" RangeMax="-1e+299">
        </DataArray>
        <DataArray type="Int64" Name="offsets" format="ascii" RangeMin="1e+299" RangeMax="-1e+299">
        </DataArray>
      </Strips>
      <Polys>
        <DataArray type="Int32" Name="connectivity" format="ascii" RangeMin="0" RangeMax="142">
          0 1 2 0 2 3
          1 0 4 5 0 6
          4 0 5 6 0 7
          0 3 8 7 0 8
          2 1 9 1 4 10
          9 1 10 3 2 11
          2 12 11 12 2 9
          13 3 11 3 14 8
          3 15 14 16 15 3
          3 13 16 4 17 18
          17 4 19 4 20 19
          4 21 20 4 5 21
          10 4 22 23 4 18
          23 22 4 6 24 5
          21 5 24 24 6 7
          7 25 24 25 7 26
          7 8 27 27 26 7
          14 27 8 28 12 9
          10 29 9 9 29 28
          29 10 22 13 11 12
          12 28 13 13 28 30
          16 13 31 30 31 13
          32 14 15 27 14 32
          33 32 15 34 35 15
          16 34 15 15 36 33
          15 35 36 34 16 31
          18 17 37 19 38 17
          38 37 17 18 37 39
          23 18 39 38 19 40
          40 19 20 41 42 20
          21 43 20 20 43 41
          20 42 40 24 44 21
          21 44 43 29 22 45
          45 22 23 46 23 39
          45 23 46 47 24 25
          24 47 44 26 48 25
          49 25 48 25 50 47
          25 49 50 51 26 52
          26 51 48 53 52 26
          26 27 53 53 27 54
          55 54 27 27 32 55
          56 57 28 28 29 45
          57 30 28 58 28 59
          58 56 28 45 59 28
          30 57 60 34 30 60
          34 31 30 32 33 61
          32 61 62 62 55 32
          33 36 63 64 33 63
          64 65 33 61 33 65
          35 34 60 66 36 35
          66 35 60 66 63 36
          37 67 68 68 39 37
          67 37 38 38 42 67
          42 38 40 39 68 46
          42 41 69 41 70 69
          70 41 71 41 43 71
          67 42 69 44 71 43
          44 47 71 72 45 46
          72 59 45 46 73 72
          73 46 68 47 74 75
          70 47 75 76 74 47
          77 76 47 47 70 71
          50 77 47 48 78 49
          78 48 51 49 79 80
          50 49 80 79 49 78
          77 50 80 52 81 51
          81 82 51 78 51 82
          83 52 53 84 52 83
          52 85 81 52 84 85
          83 53 54 86 87 54
          88 54 55 89 83 54
          54 87 89 88 86 54
          55 62 90 55 90 88
          56 60 57 56 91 60
          91 56 58 92 58 59
          91 58 92 72 92 59
          60 91 66 61 93 62
          61 65 93 90 62 76
          62 75 74 62 94 75
          95 62 93 95 94 62
          76 62 74 91 63 66
          96 63 97 64 63 96
          63 91 97 64 96 98
          64 98 65 93 65 95
          99 65 98 99 100 65
          95 65 100 68 67 101
          101 67 102 67 69 102
          73 68 101 69 70 102
          70 75 100 70 100 103
          102 70 103 72 104 92
          104 72 73 101 104 73
          94 100 75 105 88 76
          76 77 105 76 88 90
          77 80 105 78 82 106
          107 79 78 107 78 106
          80 79 108 79 107 108
          105 80 108 81 85 109
          81 109 110 81 110 82
          106 82 110 84 83 89
          111 84 89 111 112 84
          85 84 112 109 85 113
          113 85 112 86 114 87
          86 115 114 115 86 116
          86 88 117 86 117 116
          118 87 114 111 89 87
          87 118 111 88 105 119
          88 120 117 119 120 88
          91 92 97 97 92 104
          100 94 95 96 97 104
          96 99 98 96 104 99
          103 100 99 101 103 99
          99 104 101 101 102 103
          105 108 107 119 105 107
          110 121 106 107 106 122
          122 106 121 107 123 119
          122 123 107 124 109 125
          124 110 109 113 126 109
          125 109 126 110 124 127
          121 110 127 112 111 128
          129 111 118 129 128 111
          113 112 130 128 130 112
          126 113 130 114 115 118
          129 118 115 115 116 131
          129 115 131 131 116 132
          116 117 133 132 116 133
          117 134 133 134 117 120
          135 119 123 119 135 120
          120 135 134 127 136 121
          136 122 121 123 122 136
          129 123 137 129 135 123
          127 123 136 123 127 137
          125 138 124 124 138 127
          125 126 139 125 139 138
          126 130 139 138 139 127
          127 139 140 137 127 141
          141 127 140 128 140 130
          128 141 140 129 141 128
          142 135 129 132 129 131
          129 132 142 137 141 129
          140 139 130 132 133 134
          142 132 134 135 142 134
        </DataArray>
        <DataArray type="Int32" Name="offsets" format="ascii" RangeMin="3" RangeMax="846">
          3 6 9 12 15 18
          21 24 27 30 33 36
          39 42 45 48 51 54
          57 60 63 66 69 72
          75 78 81 84 87 90
          93 96 99 102 105 108
          111 114 117 120 123 126
          129 132 135 138 141 144
          147 150 153 156 159 162
          165 168 171 174 177 180
          183 186 189 192 195 198
          201 204 207 210 213 216
          219 222 225 228 231 234
          237 240 243 246 249 252
          255 258 261 264 267 270
          273 276 279 282 285 288
          291 294 297 300 303 306
          309 312 315 318 321 324
          327 330 333 336 339 342
          345 348 351 354 357 360
          363 366 369 372 375 378
          381 384 387 390 393 396
          399 402 405 408 411 414
          417 420 423 426 429 432
          435 438 441 444 447 450
          453 456 459 462 465 468
          471 474 477 480 483 486
          489 492 495 498 501 504
          507 510 513 516 519 522
          525 528 531 534 537 540
          543 546 549 552 555 558
          561 564 567 570 573 576
          579 582 585 588 591 594
          597 600 603 606 609 612
          615 618 621 624 627 630
          633 636 639 642 645 648
          651 654 657 660 663 666
          669 672 675 678 681 684
          687 690 693 696 699 702
          705 708 711 714 717 720
          723 726 729 732 735 738
          741 744 747 750 753 756
          759 762 765 768 771 774
          777 780 783 786 789 792
          795 798 801 804 807 810
          813 816 819 822 825 828
          831 834 837 840 843 846
        </DataArray>
      </Polys>
    </Piece>
  </PolyData>
</VTKFile>
