<?xml version="1.0"?>
<VTKFile type="PolyData" version="0.1" byte_order="LittleEndian" header_type="UInt32" compressor="vtkZLibDataCompressor">
  <PolyData>
    <Piece NumberOfPoints="174" NumberOfVerts="0" NumberOfLines="0" NumberOfStrips="0" NumberOfPolys="344">
      <PointData Normals="Normals">
        <DataArray type="Float32" Name="Normals" NumberOfComponents="3" format="ascii" RangeMin="0.9999993035703106" RangeMax="1.0000005771643758">
          -0.3453730046749115 -0.3479450047016144 0.8715800046920776 -0.10410600155591965 -0.3715600073337555 0.9225540161132812
          0.20540399849414825 -0.3469569981098175 0.9151120185852051 0.1497109979391098 -0.37963399291038513 0.9129430055618286
          -0.38776499032974243 -0.4066750109195709 0.8271970152854919 -0.7672340273857117 -0.2530969977378845 0.5893170237541199
          -0.5402820110321045 -0.3881779909133911 0.7466009855270386 0.2297929972410202 -0.08862700313329697 0.9691960215568542
          0.48377999663352966 -0.16888700425624847 0.8587390184402466 -0.3742220103740692 -0.4686790108680725 0.8001859784126282
          -0.14537400007247925 -0.355661004781723 0.9232400059700012 0.8430520296096802 0.04163900017738342 0.536217987537384
          -0.22041399776935577 -0.551397979259491 0.8045979738235474 0.3446820080280304 -0.5380570292472839 0.7692130208015442
          0.6260939836502075 -0.2657099962234497 0.7330790162086487 -0.6319689750671387 -0.474386990070343 0.6128399968147278
          -0.9243980050086975 -0.20501600205898285 0.3216469883918762 -0.9453129768371582 -0.1411450058221817 0.2940419912338257
          -0.8241389989852905 -0.17678600549697876 0.5380910038948059 -0.9560400247573853 -0.042360998690128326 0.2901589870452881
          -0.3947409987449646 -0.6887230277061462 0.608144998550415 -0.7395089864730835 -0.5485560297966003 0.3901430070400238
          0.2868959903717041 -0.3157230019569397 0.9044389724731445 0.45370998978614807 -0.10267399996519089 0.8852149844169617
          0.7683429718017578 0.494704008102417 0.40610000491142273 0.6516860127449036 0.25831300020217896 0.7131479978561401
          0.8671619892120361 0.40683498978614807 0.2872549891471863 -0.10119500011205673 -0.5898439884185791 0.8011519908905029
          0.9294099807739258 -0.08104000240564346 0.36004000902175903 0.8223140239715576 0.47066301107406616 -0.3198060095310211
          0.910302996635437 0.05210600048303604 -0.41065001487731934 0.9927120208740234 -0.09400899708271027 -0.07539500296115875
          -0.07081399857997894 -0.7572960257530212 0.6492220163345337 -0.4395950138568878 -0.6501240134239197 0.6197540163993835
          0.380621999502182 -0.7240620255470276 0.5752050280570984 0.7846800088882446 -0.47562500834465027 0.39756500720977783
          -0.5651270151138306 -0.762628972530365 0.31468600034713745 -0.8333420157432556 -0.530672013759613 0.1546899974346161
          -0.9908779859542847 -0.06655800342559814 0.11717800050973892 -0.9621250033378601 -0.08829499781131744 -0.2579120099544525
          -0.9505919814109802 0.10784299671649933 -0.2911109924316406 -0.9822080135345459 -0.1646459996700287 0.09032700210809708
          -0.9785109758377075 0.05822199955582619 0.19780400395393372 -0.6670730113983154 0.5833119750022888 -0.4634220004081726
          -0.917061984539032 0.39422300457954407 0.05987900123000145 0.13591399788856506 -0.98192298412323 -0.131740003824234
          -0.14219500124454498 -0.9142469763755798 -0.37938499450683594 -0.4544830024242401 -0.6927970051765442 -0.5598909854888916
          -0.7382150292396545 -0.3269439935684204 -0.5900400280952454 0.9092879891395569 -0.24986399710178375 0.33281201124191284
          0.7375500202178955 -0.5014610290527344 0.4522800147533417 0.8861119747161865 0.052581001073122025 0.4604789912700653
          0.6770889759063721 0.6816610097885132 -0.27728700637817383 0.49094098806381226 0.8000069856643677 -0.3449150025844574
          0.775331974029541 0.617123007774353 0.13423800468444824 0.614516019821167 -0.788034975528717 -0.03701600059866905
          0.4265480041503906 0.6365349888801575 -0.6425579786300659 0.49608299136161804 0.23241999745368958 -0.8365899920463562
          0.9253039956092834 -0.1677670031785965 -0.34009701013565063 0.759335994720459 -0.021333999931812286 -0.6503490209579468
          0.9228799939155579 -0.38346999883651733 0.03526800125837326 -0.33083999156951904 -0.857420027256012 0.39417698979377747
          0.1371690034866333 -0.8918409943580627 0.43105098605155945 0.39958399534225464 -0.8085569739341736 0.43193599581718445
          0.6898750066757202 -0.6611980199813843 0.2947709858417511 0.91560298204422 -0.35813799500465393 -0.182778999209404
          -0.6067619919776917 -0.5930449962615967 0.5292789936065674 -0.70585697889328 -0.7070260047912598 0.04334700107574463
          -0.6324300169944763 -0.767536997795105 0.10449299961328506 -0.41504499316215515 -0.817209005355835 0.39988499879837036
          -0.9090229868888855 -0.33349400758743286 -0.24991700053215027 -0.7484650015830994 -0.6373119950294495 -0.18339699506759644
          -0.6575369834899902 0.003229999914765358 -0.7534160017967224 -0.6766480207443237 -0.17631399631500244 -0.7148849964141846
          -0.2605539858341217 0.608618974685669 -0.7494630217552185 -0.5613240003585815 0.33521199226379395 -0.7566689848899841
          -0.8360819816589355 -0.0034000000450760126 -0.5485950112342834 -0.7410839796066284 0.4130899906158447 -0.5292930006980896
          0.2419620007276535 0.6031140089035034 -0.7600709795951843 0.3619990050792694 0.6625009775161743 -0.6557809710502625
          -0.18481199443340302 0.8043320178985596 -0.5647069811820984 0.3706589937210083 -0.352728009223938 -0.8591830134391785
          0.5902069807052612 -0.39090898633003235 -0.7062910199165344 0.13388800621032715 -0.23401500284671783 -0.9629700183868408
          -0.007786000147461891 0.05972500145435333 -0.9981849789619446 0.8373010158538818 0.16489000618457794 -0.5212849974632263
          0.8625460267066956 -0.17767900228500366 -0.47375598549842834 0.7931900024414062 0.5421159863471985 -0.277415007352829
          0.42417800426483154 0.5512570142745972 -0.7184630036354065 0.45017799735069275 0.3883169889450073 -0.804082989692688
          0.04208200052380562 -0.060968998819589615 -0.9972519874572754 0.5468199849128723 0.086326003074646 -0.8327879905700684
          0.2870140075683594 0.43931999802589417 -0.8512470126152039 -0.06703700125217438 0.061886999756097794 -0.9958289861679077
          0.8379070162773132 -0.08077099919319153 -0.5398039817810059 0.6008689999580383 0.20764699578285217 -0.7719060182571411
          0.7420690059661865 0.0674939975142479 -0.6669170260429382 -0.13211600482463837 -0.7991520166397095 0.5864310264587402
          0.2814770042896271 -0.8379169702529907 0.467617005109787 0.6593080163002014 -0.47409701347351074 0.5835620164871216
          0.5314779877662659 -0.4844669997692108 0.6948549747467041 0.9031190276145935 -0.09172499924898148 0.41947999596595764
          0.9882720112800598 0.059154000133275986 -0.14077800512313843 -0.925885021686554 0.3470799922943115 0.14924000203609467
          -0.5921339988708496 -0.311845988035202 0.7430539727210999 -0.7449730038642883 0.32061800360679626 0.5849949717521667
          -0.37669000029563904 0.21879799664020538 0.9001290202140808 -0.3000139892101288 -0.4111250042915344 0.8607950210571289
          -0.83645099401474 -0.5259940028190613 -0.1538819968700409 -0.7929099798202515 -0.5985069870948792 -0.114376001060009
          -0.8011639714241028 -0.598442018032074 0.0018530000234022737 -0.8672279715538025 -0.4506230056285858 -0.21178700029850006
          -0.3009580075740814 0.2006170004606247 -0.9322969913482666 -0.44691601395606995 -0.2961130142211914 -0.8441470265388489
          -0.7423279881477356 -0.5372300148010254 -0.40041598677635193 -0.07693199813365936 0.29063698649406433 -0.9537349939346313
          0.16808299720287323 0.5102159976959229 -0.8434619903564453 0.47047901153564453 0.043845999985933304 -0.8813210129737854
          -0.24948300421237946 -0.33812999725341797 -0.9074280261993408 0.26078200340270996 0.1092969998717308 -0.9591910243034363
          0.7039960026741028 0.29272499680519104 -0.6470720171928406 0.7153570055961609 0.048781998455524445 -0.6970540285110474
          0.3239389955997467 0.359703004360199 -0.875029981136322 0.23547999560832977 0.7757160067558289 -0.5855029821395874
          0.37642401456832886 0.2943750023841858 -0.8784350156784058 0.053141999989748 -0.11140599846839905 0.9923530220985413
          0.19399599730968475 -0.5081809759140015 0.8391169905662537 0.6093320250511169 0.38530200719833374 0.6930059790611267
          0.6982730031013489 0.5436210036277771 0.46571600437164307 0.3528290092945099 0.23086699843406677 0.9067590236663818
          0.8469709753990173 0.5051900148391724 -0.1656000018119812 0.24628199636936188 0.9590889811515808 -0.13961799442768097
          -0.9313449859619141 0.3632670044898987 0.025175999850034714 -0.0040779998525977135 0.989529013633728 0.14427900314331055
          -0.2981410026550293 0.8260930180549622 0.478206992149353 0.14988799393177032 0.7388709783554077 0.6569650173187256
          -0.7041149735450745 -0.7070710062980652 -0.06536500155925751 -0.9465789794921875 -0.3196220099925995 -0.04278299957513809
          -0.9415979981422424 -0.324737012386322 -0.0890979990363121 -0.6830270290374756 0.7257760167121887 0.08199399709701538
          -0.5585669875144958 -0.6203330159187317 -0.5506269931793213 -0.5474110245704651 -0.38840898871421814 -0.7412689924240112
          -0.005991999991238117 0.10432499647140503 -0.9945250153541565 -0.3035770058631897 -0.12278000265359879 -0.9448630213737488
          0.6073740124702454 0.7473250031471252 -0.26944899559020996 0.25137200951576233 0.9667419791221619 0.0471469983458519
          -0.11942700296640396 0.5526999831199646 -0.8247789740562439 -0.45667800307273865 0.7687270045280457 -0.4477759897708893
          -0.25586798787117004 0.8981069922447205 0.357681006193161 -0.07336600124835968 0.9760850071907043 0.20463399589061737
          0.14631299674510956 0.8816930055618286 0.44856399297714233 -0.015603000298142433 0.8531820178031921 0.5213800072669983
          0.5172920227050781 0.8124160170555115 0.26905199885368347 0.15349799394607544 0.9817889928817749 0.11193100363016129
          0.018592000007629395 0.9948880076408386 0.09925299882888794 0.07429400086402893 0.9872400164604187 0.14084599912166595
          -0.19448600709438324 0.961670994758606 0.19329799711704254 -0.7316589951515198 -0.5921090245246887 -0.33776000142097473
          -0.872780978679657 -0.07278899848461151 -0.48265498876571655 -0.7622900009155273 0.380158007144928 -0.523826003074646
          -0.3821820020675659 0.6386449933052063 0.6678839921951294 -0.2597759962081909 0.8512210249900818 0.45600399374961853
          -0.5604360103607178 0.17210200428962708 -0.8101189732551575 -0.3282189965248108 0.26452600955963135 -0.906807005405426
          0.04320500046014786 0.9138410091400146 0.403766006231308 -0.23543700575828552 0.7973639965057373 0.5556790232658386
          -0.3277379870414734 0.7350429892539978 0.5935479998588562 -0.28247299790382385 0.5633479952812195 0.776432991027832
          -0.10100100189447403 0.9485269784927368 0.30015701055526733 -0.07006999850273132 0.9758700132369995 0.2068050056695938
          -0.25825798511505127 0.9577419757843018 0.12662599980831146 0.09871800243854523 0.909600019454956 0.4035860002040863
          -0.14475299417972565 0.939083993434906 0.3117170035839081 -0.17202000319957733 0.8388280272483826 0.5165050029754639
          <InformationKey name="L2_NORM_RANGE" location="vtkDataArray" length="2">
            <Value index="0">
              0.99999930357
            </Value>
            <Value index="1">
              1.0000005772
            </Value>
          </InformationKey>
        </DataArray>
      </PointData>
      <CellData>
      </CellData>
      <Points>
        <DataArray type="Float32" Name="Points" NumberOfComponents="3" format="ascii" RangeMin="0.10403364917849275" RangeMax="0.12395526034497566">
          0.025451000779867172 -0.10177300125360489 0.05094200000166893 0.026316000148653984 -0.10638199746608734 0.04967299848794937
          0.02792000025510788 -0.10194599628448486 0.05104300007224083 0.027705000713467598 -0.10107000172138214 0.05142899975180626
          0.024754999205470085 -0.0995590016245842 0.05158400163054466 0.0236820001155138 -0.10150499641895294 0.049605999141931534
          0.024799000471830368 -0.10824699699878693 0.04778800159692764 0.0291920006275177 -0.10302499681711197 0.050269998610019684
          0.0291920006275177 -0.10233200341463089 0.05032600089907646 0.026014000177383423 -0.10957600176334381 0.04762300103902817
          0.027045000344514847 -0.1086369976401329 0.04843199998140335 0.02863300032913685 -0.1012289971113205 0.05098000168800354
          0.025620000436902046 -0.09762799739837646 0.05293300002813339 0.027938000857830048 -0.09740400314331055 0.05316400155425072
          0.02812100015580654 -0.10031399875879288 0.051426999270915985 0.024792000651359558 -0.09753099828958511 0.052646998316049576
          0.0228240005671978 -0.09763199836015701 0.049330998212099075 0.022942999377846718 -0.09958600252866745 0.04899600148200989
          0.023509999737143517 -0.10447099804878235 0.048229001462459564 0.022933000698685646 -0.10195299983024597 0.04735900089144707
          0.02582399919629097 -0.11073499917984009 0.0467119999229908 0.023785000666975975 -0.10976599901914597 0.046153001487255096
          0.02920600026845932 -0.10607600212097168 0.049564000219106674 0.02967200055718422 -0.1033250018954277 0.05012200027704239
          0.029644999653100967 -0.1023240014910698 0.049897998571395874 0.029920000582933426 -0.10291200131177902 0.04995499923825264
          0.029039999470114708 -0.10162100195884705 0.05053099989891052 0.02751700021326542 -0.11016599833965302 0.04808099940419197
          0.028464000672101974 -0.10025499761104584 0.05105200037360191 0.028586000204086304 -0.1009719967842102 0.049943000078201294
          0.02828799933195114 -0.0999390035867691 0.04980599880218506 0.028477000072598457 -0.10001499950885773 0.05049100145697594
          0.026743000373244286 -0.09551999717950821 0.05521300062537193 0.024598000571131706 -0.09513299912214279 0.05440500006079674
          0.027381999418139458 -0.09542299807071686 0.0551070012152195 0.02906399965286255 -0.09664099663496017 0.05273500084877014
          0.021338000893592834 -0.09344100207090378 0.0529169999063015 0.022159000858664513 -0.09492699801921844 0.05112399905920029
          0.022830000147223473 -0.09870699793100357 0.04889899864792824 0.022794000804424286 -0.09765899926424026 0.048760998994112015
          0.022846000269055367 -0.09953399747610092 0.04844199866056442 0.022393999621272087 -0.10542599856853485 0.0459819994866848
          0.022481000050902367 -0.1022460013628006 0.04640600085258484 0.02289400063455105 -0.1009029969573021 0.0469839982688427
          0.022725999355316162 -0.10135400295257568 0.04661399871110916 0.02693299949169159 -0.11157199740409851 0.0458110012114048
          0.02595899999141693 -0.11143799871206284 0.04532000049948692 0.024366000667214394 -0.11064399778842926 0.04461099952459335
          0.023970000445842743 -0.11000899970531464 0.04449800029397011 0.030022000893950462 -0.10753200203180313 0.048229001462459564
          0.029454000294208527 -0.10999000072479248 0.04741799831390381 0.030355999246239662 -0.10341600328683853 0.04956100136041641
          0.028978999704122543 -0.10173200070858002 0.04981699958443642 0.029566999524831772 -0.10237500071525574 0.048955000936985016
          0.029975000768899918 -0.1025879979133606 0.049430001527071 0.028526000678539276 -0.11121799796819687 0.04670900106430054
          0.02863200008869171 -0.10211300104856491 0.048872001469135284 0.02654300071299076 -0.10188800096511841 0.047540001571178436
          0.029013000428676605 -0.09685400128364563 0.05086800083518028 0.028790999203920364 -0.09570299834012985 0.05052800104022026
          0.02930399961769581 -0.09639599919319153 0.05208799988031387 0.025022000074386597 -0.09436599910259247 0.05607299879193306
          0.027526000514626503 -0.0948610007762909 0.05606500059366226 0.028637999668717384 -0.09416300058364868 0.056062001734972
          0.03062799945473671 -0.09397199749946594 0.05488799884915352 0.030724000185728073 -0.09399200230836868 0.05305600166320801
          0.021317999809980392 -0.09230300039052963 0.05627899989485741 0.019641000777482986 -0.09260600060224533 0.052611999213695526
          0.021052999421954155 -0.09347300231456757 0.051934998482465744 0.02428700029850006 -0.09376499801874161 0.057218998670578
          0.022144999355077744 -0.09478899836540222 0.04962100088596344 0.020501000806689262 -0.09298700094223022 0.05141700059175491
          0.023219000548124313 -0.09847299754619598 0.04825799912214279 0.02341499924659729 -0.09709099680185318 0.04772099852561951
          0.02327599935233593 -0.09981799870729446 0.047412000596523285 0.02331399917602539 -0.09898500144481659 0.048138998448848724
          0.02266800031065941 -0.10521300137042999 0.04483700171113014 0.022512000054121017 -0.10176099836826324 0.045896001160144806
          0.024000000208616257 -0.10050400346517563 0.04696999862790108 0.023811999708414078 -0.10177700221538544 0.04590899869799614
          0.023056000471115112 -0.10128799825906754 0.04600999876856804 0.02670999988913536 -0.11079200357198715 0.045207999646663666
          0.028394000604748726 -0.11099100112915039 0.04625900089740753 0.024845000356435776 -0.10952600091695786 0.04423899948596954
          0.02400200068950653 -0.10761500149965286 0.04402200132608414 0.03044399991631508 -0.10430199652910233 0.04839299991726875
          0.029740000143647194 -0.10872399806976318 0.04697199910879135 0.030198000371456146 -0.10284599661827087 0.04893700033426285
          0.029743999242782593 -0.10290300101041794 0.048457998782396317 0.026778999716043472 -0.10460799932479858 0.04629199951887131
          0.024229999631643295 -0.09407400339841843 0.047579001635313034 0.02628600038588047 -0.09408500045537949 0.048464998602867126
          0.024737000465393066 -0.10081099718809128 0.047251999378204346 0.024932000786066055 -0.0994969978928566 0.0475660003721714
          0.030717000365257263 -0.09313599765300751 0.052567001432180405 0.029464000836014748 -0.09172599762678146 0.05139299854636192
          0.030189000070095062 -0.09293799847364426 0.05180799961090088 0.026166999712586403 -0.09426700323820114 0.05763600021600723
          0.02711400017142296 -0.09442400187253952 0.05738300085067749 0.03030100092291832 -0.09350699931383133 0.05623000115156174
          0.029624000191688538 -0.09312400221824646 0.057162001729011536 0.0311879999935627 -0.09292300045490265 0.05557100102305412
          0.03131600096821785 -0.09217599779367447 0.05368899926543236 0.01887499913573265 -0.09073399752378464 0.053415000438690186
          0.02096099965274334 -0.09123700112104416 0.05664699897170067 0.01991499960422516 -0.09070099890232086 0.05580899864435196
          0.022187000140547752 -0.09089399874210358 0.057509999722242355 0.024952000007033348 -0.09318599849939346 0.058348000049591064
          0.019533000886440277 -0.09205599874258041 0.05186999961733818 0.02165599912405014 -0.09352199733257294 0.04957899823784828
          0.019770000129938126 -0.09192900359630585 0.050221998244524 0.01905299909412861 -0.09113900363445282 0.05131800100207329
          0.02384299971163273 -0.09909199923276901 0.047850001603364944 0.022460000589489937 -0.09386099874973297 0.047784000635147095
          0.02196500077843666 -0.09383100271224976 0.04828700050711632 0.02336299978196621 -0.1037139967083931 0.044718001037836075
          0.02339800074696541 -0.10196399688720703 0.04550199955701828 0.02699499949812889 -0.10905499756336212 0.04500199854373932
          0.02213899977505207 -0.09307199716567993 0.047616999596357346 0.02366499975323677 -0.09162600338459015 0.047175999730825424
          0.030376000329852104 -0.09130100160837173 0.05209700018167496 0.030222000554203987 -0.09219799935817719 0.05204100161790848
          0.023567000404000282 -0.09018599987030029 0.047641001641750336 0.023354999721050262 -0.0892999991774559 0.048266999423503876
          0.02349800057709217 -0.09091699868440628 0.04751399904489517 0.026180999353528023 -0.09251700341701508 0.05850199982523918
          0.027494000270962715 -0.09370499849319458 0.058125000447034836 0.030378000810742378 -0.0927089974284172 0.05651199817657471
          0.030762000009417534 -0.09179899841547012 0.055309999734163284 0.02764900028705597 -0.09285300225019455 0.058285001665353775
          0.030549999326467514 -0.09091299772262573 0.052838001400232315 0.02252900041639805 -0.09135500341653824 0.05690699815750122
          0.018775999546051025 -0.09081699699163437 0.05234000086784363 0.019440000876784325 -0.09086800366640091 0.05358700081706047
          0.020911000669002533 -0.09074299782514572 0.05672699958086014 0.024809999391436577 -0.09184599667787552 0.05840200185775757
          0.019781000912189484 -0.0922359973192215 0.0492589995265007 0.019391000270843506 -0.09159500151872635 0.04913099855184555
          0.01941400021314621 -0.09121300280094147 0.0502530001103878 0.019380999729037285 -0.09051500260829926 0.04940799996256828
          0.021570999175310135 -0.0931129977107048 0.048023998737335205 0.020200999453663826 -0.09194199740886688 0.04784499853849411
          0.02269200049340725 -0.09149900078773499 0.047168999910354614 0.02092299982905388 -0.09170699864625931 0.047474998980760574
          0.030101999640464783 -0.09036300331354141 0.05289199948310852 0.027925999835133553 -0.08950900286436081 0.051656998693943024
          0.021888000890612602 -0.08982499688863754 0.04770100116729736 0.020295999944210052 -0.0897660031914711 0.048597000539302826
          0.022703999653458595 -0.08921699970960617 0.048948999494314194 0.025056999176740646 -0.0889580026268959 0.050195999443531036
          0.027560999616980553 -0.09223999828100204 0.05804299935698509 0.029426999390125275 -0.0913970023393631 0.05471400171518326
          0.030389999970793724 -0.09053599834442139 0.053651001304388046 0.01999500021338463 -0.0907370001077652 0.05297499895095825
          0.023670999333262444 -0.09155900031328201 0.05323699861764908 0.024235999211668968 -0.09157200157642365 0.053977999836206436
          0.019291000440716743 -0.09056700021028519 0.05275899916887283 0.019826000556349754 -0.092119000852108 0.04846800118684769
          0.019548000767827034 -0.0914049968123436 0.04835199937224388 0.019652999937534332 -0.0906519964337349 0.048505999147892
          0.024625999853014946 -0.09057699888944626 0.05077100172638893 0.02469399943947792 -0.09097599983215332 0.051511000841856
          0.020044999197125435 -0.09121400117874146 0.0478769987821579 0.020867999643087387 -0.09092900156974792 0.04751399904489517
          0.029721999540925026 -0.0901390016078949 0.05312800034880638 0.027255000546574593 -0.09084700047969818 0.05243400111794472
          0.026362000033259392 -0.08916600048542023 0.05104999989271164 0.02606699988245964 -0.0900460034608841 0.051575999706983566
          0.025940999388694763 -0.09154199808835983 0.053592998534440994 0.024772999808192253 -0.09131500124931335 0.053203001618385315
          0.024507999420166016 -0.09145200252532959 0.05276700109243393 0.025249000638723373 -0.09149300307035446 0.053227998316287994
          0.025179000571370125 -0.09108799695968628 0.052528999745845795 0.025993000715970993 -0.09098199754953384 0.05223099887371063
          <InformationKey name="L2_NORM_RANGE" location="vtkDataArray" length="2">
            <Value index="0">
              0.10403364918
            </Value>
            <Value index="1">
              0.12395526034
            </Value>
          </InformationKey>
        </DataArray>
      </Points>
      <Verts>
        <DataArray type="Int64" Name="connectivity" format="ascii" RangeMin="1e+299" RangeMax="-1e+299">
        </DataArray>
        <DataArray type="Int64" Name="offsets" format="ascii" RangeMin="1e+299" RangeMax="-1e+299">
        </DataArray>
      </Verts>
      <Lines>
        <DataArray type="Int64" Name="connectivity" format="ascii" RangeMin="1e+299" RangeMax="-1e+299">
        </DataArray>
        <DataArray type="Int64" Name="offsets" format="ascii" RangeMin="1e+299" RangeMax="-1e+299">
        </DataArray>
      </Lines>
      <Strips>
        <DataArray type="Int64" Name="connectivity" format="ascii" RangeMin="1e+299" RangeMax="-1e+299">
        </DataArray>
        <DataArray type="Int64" Name="offsets" format="ascii" RangeMin="1e+299" RangeMax="-1e+299">
        </DataArray>
      </Strips>
      <Polys>
        <DataArray type="Int32" Name="connectivity" format="ascii" RangeMin="0" RangeMax="173">
          0 1 2 0 3 4
          5 0 4 2 3 0
          0 6 1 5 6 0
          7 8 1 1 9 10
          8 2 1 10 7 1
          1 6 9 8 11 2
          3 2 11 12 3 13
          12 4 3 3 11 14
          13 3 14 15 4 12
          4 15 5 16 5 15
          16 17 5 18 5 19
          17 19 5 5 18 6
          9 6 20 21 20 6
          18 21 6 7 10 22
          23 7 22 7 24 8
          23 25 7 25 24 7
          26 8 24 26 11 8
          9 20 27 27 10 9
          27 22 10 14 11 28
          29 11 26 30 11 29
          31 28 11 31 11 30
          32 12 13 33 15 12
          33 12 32 13 34 32
          35 34 13 35 13 14
          28 35 14 15 36 37
          33 36 15 16 15 37
          38 16 39 17 16 38
          39 16 37 19 17 40
          40 17 38 41 18 42
          18 41 21 19 42 18
          43 19 40 44 42 19
          44 19 43 45 27 20
          21 46 20 45 20 46
          46 21 47 48 47 21
          41 48 21 49 22 50
          51 22 49 23 22 51
          50 22 27 23 51 25
          26 24 52 52 24 53
          54 53 24 25 54 24
          51 54 25 52 29 26
          27 45 55 50 27 55
          35 28 31 52 56 29
          57 29 56 29 57 30
          58 30 59 59 30 57
          30 58 31 35 31 60
          60 31 58 32 61 33
          62 32 34 32 62 61
          61 36 33 62 34 63
          63 34 64 34 35 64
          64 35 65 35 60 65
          36 66 67 68 37 36
          67 68 36 69 66 36
          69 36 61 70 39 37
          71 37 68 70 37 71
          39 40 38 40 39 72
          39 70 73 39 73 72
          74 43 40 40 72 75
          40 75 74 76 48 41
          42 76 41 42 44 77
          42 77 76 43 74 78
          43 78 79 80 44 43
          80 43 79 77 44 80
          81 82 45 82 55 45
          45 46 81 83 81 46
          83 46 47 47 48 83
          76 84 48 83 48 84
          51 49 85 49 86 85
          86 49 50 86 50 55
          87 51 85 51 87 54
          56 52 53 54 87 53
          87 88 53 88 56 53
          86 55 82 88 89 56
          89 57 56 57 90 91
          91 59 57 92 57 89
          93 90 57 93 57 92
          65 60 58 65 58 59
          65 59 94 91 95 59
          96 59 95 59 96 94
          62 97 61 97 69 61
          62 63 98 62 98 97
          99 100 63 98 63 100
          64 99 63 99 64 101
          65 102 64 101 64 102
          102 65 94 103 67 66
          104 105 66 66 105 103
          66 106 104 106 66 107
          107 66 69 71 68 67
          67 108 71 108 67 103
          107 69 97 70 71 109
          70 109 73 110 71 111
          108 111 71 109 71 110
          75 72 112 73 112 72
          113 90 73 113 73 114
          109 114 73 90 93 73
          112 73 93 75 112 74
          92 74 112 74 92 78
          76 115 84 77 115 76
          77 116 115 116 77 80
          92 89 78 78 89 79
          89 116 79 116 80 79
          81 117 82 83 117 81
          82 117 86 83 84 117
          89 84 115 89 117 84
          88 85 89 85 86 117
          117 89 85 87 85 88
          115 116 89 118 90 113
          90 118 119 119 91 90
          95 91 119 112 93 92
          102 94 120 121 120 94
          96 121 94 121 95 120
          122 123 95 124 122 95
          124 95 119 95 123 120
          96 95 121 125 97 126
          107 97 125 126 97 98
          126 98 100 100 99 127
          99 101 128 99 128 127
          127 129 100 100 129 126
          101 102 128 130 128 102
          102 120 130 131 103 105
          108 103 132 133 103 131
          132 103 133 106 134 104
          134 105 104 131 105 134
          106 107 135 131 134 106
          135 131 106 135 107 125
          111 108 132 136 109 110
          109 136 114 110 137 136
          111 138 110 138 137 110
          132 139 111 138 111 139
          118 113 140 113 114 140
          140 114 136 140 141 118
          142 119 118 142 118 143
          118 141 143 119 142 124
          144 130 120 144 120 145
          123 145 120 146 122 142
          142 122 124 122 146 123
          147 123 146 148 123 147
          148 149 123 145 123 149
          125 126 129 135 125 129
          127 150 129 127 128 151
          127 151 150 152 151 128
          152 128 130 150 135 129
          144 152 130 153 133 131
          153 131 154 131 135 155
          155 154 131 133 156 132
          139 132 156 133 153 156
          135 150 155 136 137 157
          140 136 157 138 139 137
          137 139 158 137 158 157
          147 159 139 159 158 139
          156 153 139 139 148 147
          139 160 148 139 153 154
          161 139 154 160 139 161
          141 140 157 157 158 141
          162 141 158 162 143 141
          163 142 143 146 142 163
          163 143 162 152 144 164
          164 144 145 165 164 145
          166 145 149 145 166 167
          167 165 145 147 146 163
          147 162 159 147 163 162
          149 148 160 166 149 160
          165 168 150 150 151 165
          168 155 150 164 151 152
          151 164 165 154 155 169
          170 154 169 161 154 170
          168 171 155 171 169 155