<?xml version="1.0"?>
<VTKFile type="PolyData" version="0.1" byte_order="LittleEndian" header_type="UInt32" compressor="vtkZLibDataCompressor">
  <PolyData>
    <Piece NumberOfPoints="1769" NumberOfVerts="0" NumberOfLines="0" NumberOfStrips="0" NumberOfPolys="3534">
      <PointData Normals="Normals">
        <DataArray type="Float32" Name="Normals" NumberOfComponents="3" format="ascii" RangeMin="0.999999206533191" RangeMax="1.0000007901894419">
          0.6954500079154968 -0.6794300079345703 -0.2339320033788681 0.6343950033187866 -0.7615110278129578 -0.13283400237560272
          0.7096369862556458 -0.6184620261192322 -0.33751899003982544 0.5872830152511597 -0.7846909761428833 -0.19839000701904297
          0.5422800183296204 -0.8233789801597595 -0.16727100312709808 0.4202280044555664 -0.8687859773635864 -0.2619520127773285
          0.6487269997596741 -0.7064509987831116 -0.2829839885234833 0.5271139740943909 -0.8447830080986023 0.09215199947357178
          0.5931479930877686 -0.8050910234451294 -0.001841000048443675 0.7474799752235413 -0.6504549980163574 -0.13484099507331848
          0.6961039900779724 -0.6109520196914673 -0.37706300616264343 0.767071008682251 -0.608817994594574 -0.20234400033950806
          0.33119601011276245 -0.9334719777107239 -0.13762199878692627 0.335534006357193 -0.94132399559021 0.036428000777959824
          0.6000840067863464 -0.7988680005073547 0.04133699834346771 0.5890259742736816 -0.8037009835243225 -0.08434300124645233
          0.1931619942188263 -0.8586350083351135 -0.4747990071773529 0.6184849739074707 -0.6695520281791687 -0.41130998730659485
          0.3332670032978058 -0.7476710081100464 -0.5743870139122009 0.07872600108385086 -0.9634159803390503 -0.2561880052089691
          0.7810159921646118 -0.6227970123291016 0.046241000294685364 0.8099979758262634 -0.5744540095329285 -0.11792699992656708
          0.7126520276069641 -0.692209005355835 -0.11389899998903275 0.762798011302948 -0.6449810266494751 0.04624899849295616
          0.8327280282974243 -0.5343660116195679 0.14496999979019165 0.804295003414154 -0.549938976764679 0.22511500120162964
          0.8843820095062256 -0.44983598589897156 0.12456399947404861 0.0796160027384758 -0.9956610202789307 -0.04816100001335144
          0.4266209900379181 -0.8817690014839172 0.20119400322437286 0.07556299865245819 -0.9946489930152893 0.07045599818229675
          0.3163830041885376 -0.9015470147132874 0.2951509952545166 0.6373819708824158 -0.6907659769058228 0.34144899249076843
          0.10922399908304214 -0.7458699941635132 -0.6570749878883362 -0.17194700241088867 -0.8561189770698547 -0.4873349964618683
          0.7801839709281921 -0.523472011089325 -0.3424749970436096 0.6366320252418518 -0.5975840091705322 -0.4874359965324402
          0.7559099793434143 -0.49707600474357605 -0.4260460138320923 0.38964998722076416 -0.6417739987373352 -0.6605299711227417
          0.1444060057401657 -0.6394990086555481 -0.7551079988479614 -0.17043699324131012 -0.968254029750824 -0.18285299837589264
          0.8745149970054626 -0.423334002494812 0.23666800558567047 0.9118930101394653 -0.26543301343917847 0.3130429983139038
          0.903302013874054 -0.3951509892940521 0.16704000532627106 0.9110810160636902 -0.4053739905357361 -0.07485199719667435
          0.8977829813957214 -0.38351699709892273 -0.21656300127506256 0.9615769982337952 -0.25230300426483154 0.1082260012626648
          0.8439570069313049 -0.4279870092868805 0.32336199283599854 0.8700010180473328 -0.35757601261138916 0.33946698904037476
          0.5099319815635681 -0.7541959881782532 0.4137130081653595 0.1740349978208542 -0.9227269887924194 0.3439280092716217
          -0.10678000003099442 -0.9582020044326782 0.26541998982429504 -0.23687699437141418 -0.9709470272064209 -0.033927999436855316
          0.38325899839401245 -0.7869899868965149 0.48348701000213623 0.5116909742355347 -0.7302690148353577 0.4526360034942627
          0.8288030028343201 -0.4602999985218048 0.31813400983810425 -0.054836999624967575 -0.7162789702415466 -0.6956549882888794
          -0.4214250147342682 -0.7939599752426147 -0.43821001052856445 -0.37320899963378906 -0.7590929865837097 -0.5333799719810486
          -0.3188529908657074 -0.7050819993019104 -0.6333969831466675 -0.3299880027770996 -0.9002450108528137 -0.28402000665664673
          -0.45089098811149597 -0.8070999979972839 -0.3811649978160858 0.9010879993438721 -0.363180011510849 -0.23694199323654175
          0.8353750109672546 -0.44761401414871216 -0.3190450072288513 0.42889198660850525 -0.6093329787254333 -0.666907012462616
          0.7010089755058289 -0.4684160053730011 -0.5377470254898071 0.2717590034008026 -0.5528470277786255 -0.7877230048179626
          0.22682499885559082 -0.5245760083198547 -0.8205919861793518 -0.1715719997882843 -0.626954972743988 -0.7599279880523682
          0.09325999766588211 -0.5498930215835571 -0.8300120234489441 0.877714991569519 -0.18612800538539886 0.44155800342559814
          0.9423969984054565 -0.05990999937057495 0.3290889859199524 0.8373739719390869 0.0338359996676445 0.5455830097198486
          0.9783170223236084 -0.1719529926776886 -0.11544399708509445 0.9935340285301208 -0.10185500234365463 -0.050165001302957535
          0.99480801820755 -0.06909999996423721 0.07471200078725815 0.8781260251998901 -0.3368630111217499 0.33973199129104614
          0.8170250058174133 -0.40575098991394043 0.40967899560928345 0.5901769995689392 -0.6934430003166199 0.41331300139427185
          -0.038350000977516174 -0.8704310059547424 0.49079400300979614 0.3355250060558319 -0.7502760291099548 0.5696560144424438
          0.14082899689674377 -0.8562840223312378 0.49693599343299866 -0.18550199270248413 -0.8703770041465759 0.4561069905757904
          -0.328341007232666 -0.9137380123138428 0.23932099342346191 -0.46024399995803833 -0.8808990120887756 0.11041799932718277
          -0.3595550060272217 -0.9279360175132751 -0.09826300293207169 0.3801319897174835 -0.599698007106781 0.7041749954223633
          0.5336570143699646 -0.5598220229148865 0.6338840126991272 0.7252079844474792 -0.5683950185775757 0.38858699798583984
          0.6334159970283508 -0.5227259993553162 0.570563018321991 -0.5256630182266235 -0.6907269954681396 -0.49656400084495544
          -0.5231680274009705 -0.5957949757575989 -0.6093630194664001 -0.511559009552002 -0.8399350047111511 -0.18115399777889252
          -0.6393129825592041 -0.7301909923553467 -0.2410379946231842 0.9716249704360962 -0.17900900542736053 -0.15460099279880524
          0.8956459760665894 -0.2650029957294464 -0.3571990132331848 0.46491798758506775 -0.44979000091552734 -0.7625880241394043
          0.8110349774360657 -0.24800999462604523 -0.5298240184783936 0.6373010277748108 -0.41544800996780396 -0.6490380167961121
          0.4028779864311218 -0.34229299426078796 -0.8488370180130005 0.22565500438213348 -0.4716950058937073 -0.8523989915847778
          -0.09851700067520142 -0.5819990038871765 -0.807200014591217 0.8140419721603394 -0.21260400116443634 0.540494978427887
          0.8288170099258423 0.014356999658048153 0.5593349933624268 0.9693509936332703 0.012597999535501003 0.24535499513149261
          0.8243020176887512 0.09429600089788437 0.5582429766654968 0.7820479869842529 0.11477500200271606 0.6125580072402954
          0.7057160139083862 0.31280800700187683 0.6357010006904602 0.9983329772949219 -0.0003910000086762011 0.057707998901605606
          0.9909800291061401 0.09037499874830246 0.09895200282335281 0.986283004283905 0.1399870067834854 -0.08745899796485901
          0.7446720004081726 -0.3320240080356598 0.5789849758148193 0.8257989883422852 -0.4526970088481903 0.3363350033760071
          0.38178399205207825 -0.6474040150642395 0.6596279740333557 0.9519309997558594 -0.21731099486351013 0.2158769965171814
          0.5151029825210571 -0.6902959942817688 0.5080950260162354 -0.4713450074195862 -0.7679399847984314 0.4337080121040344
          -0.24262799322605133 -0.7957339882850647 0.5549219846725464 -0.6186500191688538 -0.7804920077323914 0.09002300351858139
          0.5530819892883301 -0.38306599855422974 0.7398380041122437 0.5254250168800354 -0.3643850088119507 0.7688639760017395
          0.3092910051345825 -0.5662099719047546 0.7640320062637329 0.6648370027542114 -0.2559430003166199 0.7017729878425598
          -0.6862930059432983 -0.6257539987564087 -0.3707199990749359 -0.6844040155410767 -0.4799720048904419 -0.5488330125808716
          -0.5878559947013855 -0.5360289812088013 -0.6058869957923889 -0.3528810143470764 -0.6077150106430054 -0.71144700050354
          -0.7387290000915527 -0.44584599137306213 -0.5054709911346436 -0.7176870107650757 -0.6962289810180664 -0.01384199969470501
          0.936860978603363 -0.09258899837732315 -0.33722299337387085 0.6294779777526855 -0.32097700238227844 -0.7076240181922913
          0.7685909867286682 -0.14526799321174622 -0.6230279803276062 0.8898730278015137 -0.03385400027036667 -0.4549509882926941
          0.6335359811782837 -0.19865800440311432 -0.7477750182151794 0.3779650032520294 -0.29034900665283203 -0.8791130185127258
          0.5137810111045837 -0.13457700610160828 -0.8472999930381775 0.6590480208396912 -0.10976400226354599 -0.744047999382019
          0.12672899663448334 -0.5143529772758484 -0.8481630086898804 0.2739950120449066 -0.4157960116863251 -0.8672029972076416
          0.437950998544693 -0.3227129876613617 -0.8390799760818481 -0.022001000121235847 -0.5412859916687012 -0.8405500054359436
          -0.32407599687576294 -0.5368379950523376 -0.7789610028266907 0.7795180082321167 -0.045993998646736145 0.624688982963562
          0.9215620160102844 0.1553650051355362 0.355787992477417 0.7700160145759583 0.3226189911365509 0.5504480004310608
          0.7554699778556824 -0.06710900366306305 0.6517369747161865 0.7461749911308289 0.01689000055193901 0.6655359864234924
          0.8078659772872925 0.22125600278377533 0.5462579727172852 0.7351629734039307 0.5226190090179443 0.4317469894886017
          0.7777569890022278 0.43716201186180115 0.45164498686790466 0.7821440100669861 0.44391098618507385 0.43725699186325073
          0.9585450291633606 0.15698100626468658 0.23779800534248352 0.9374120235443115 0.3005650043487549 0.17583900690078735
          0.9576060175895691 0.08899299800395966 -0.27399200201034546 0.9513660073280334 0.3071860074996948 -0.023228000849485397
          0.8638970255851746 0.45170700550079346 0.22280600666999817 0.15045900642871857 -0.7048429846763611 0.6932229995727539
          -0.06885399669408798 -0.7595800161361694 0.6467599868774414 -0.31070199608802795 -0.640362024307251 0.7024250030517578
          -0.6285820007324219 -0.7475730180740356 0.21452200412750244 -0.43244901299476624 -0.5501919984817505 0.7143359780311584
          -0.6686649918556213 -0.677249014377594 0.3069550096988678 -0.5310980081558228 -0.6266610026359558 0.5702909827232361
          -0.2144699990749359 -0.7346169948577881 0.6436929702758789 0.6551430225372314 -0.17209500074386597 0.7356439828872681
          0.5425440073013306 -0.26946398615837097 0.7956349849700928 0.3860679864883423 -0.4589090049266815 0.8002210259437561
          0.6734970211982727 -0.11925800144672394 0.7295060157775879 0.1543159931898117 -0.6281769871711731 0.7626140117645264
          -0.7756270170211792 -0.6014339923858643 -0.19152000546455383 -0.7315379977226257 -0.49273499846458435 -0.4712370038032532
          -0.720212996006012 -0.4108879864215851 -0.5589849948883057 -0.6854509711265564 -0.49009498953819275 -0.5384830236434937
          -0.7779639959335327 -0.42725300788879395 -0.4606809914112091 -0.7787740230560303 -0.592179000377655 0.2069689929485321
          0.7448970079421997 -0.09765700250864029 -0.6599940061569214 0.8451269865036011 0.02364799939095974 -0.5340420007705688
          0.9526500105857849 0.21253900229930878 -0.21744899451732635 0.5235400199890137 -0.16399599611759186 -0.8360689878463745
          0.6601470112800598 0.04273800179362297 -0.7499200105667114 0.7059109807014465 0.05117899924516678 -0.7064489722251892
          -0.006938000209629536 -0.4791699945926666 -0.8776950240135193 0.07837100327014923 -0.3099670112133026 -0.9475119709968567
          0.3674199879169464 -0.2780340015888214 -0.8875240087509155 0.5718939900398254 -0.16505900025367737 -0.8035500049591064
          -0.3180379867553711 -0.4149149954319 -0.8524659872055054 0.8704259991645813 0.3449940085411072 0.35119500756263733
          0.7641800045967102 0.03608600050210953 0.6439930200576782 0.7795590162277222 0.1519560068845749 0.6076149940490723
          0.7876650094985962 0.4319010078907013 0.43936899304389954 0.7503550052642822 0.5949159860610962 0.2881709933280945
          0.8394290208816528 0.45607298612594604 0.29556000232696533 0.7609450221061707 0.5310069918632507 0.3728199899196625
          0.6295379996299744 0.5803830027580261 0.5165629982948303 0.6595929861068726 0.45104798674583435 0.6012420058250427
          0.8037760257720947 0.32979801297187805 0.4951539933681488 0.7849940061569214 0.33654099702835083 0.5201200246810913
          0.8548700213432312 0.45819199085235596 0.24342599511146545 0.8884180188179016 0.33362600207328796 0.31529000401496887
          0.9325770139694214 0.36015400290489197 0.024282999336719513 0.8682469725608826 0.47153300046920776 0.15428400039672852
          -0.0728520005941391 -0.6761450171470642 0.7331579923629761 -0.19585299491882324 -0.5195080041885376 0.8317170143127441
          -0.27562299370765686 -0.4306429922580719 0.8594059944152832 -0.4494990110397339 -0.507203996181488 0.7353190183639526
          -0.3393000066280365 -0.4037899971008301 0.8496050238609314 -0.6900230050086975 -0.5356079936027527 0.48681899905204773
          -0.5231890082359314 -0.5514240264892578 0.6497730016708374 0.3870140016078949 -0.2622630000114441 0.8839899897575378
          0.5951629877090454 -0.059216998517513275 0.8014199733734131 0.2695870101451874 -0.4747770130634308 0.8378000259399414
          0.1726360023021698 -0.5268599987030029 0.8322349786758423 -0.8075770139694214 -0.5896959900856018 -0.008870000019669533
          -0.8007270097732544 -0.5612419843673706 -0.20938800275325775 -0.7659140229225159 -0.46691399812698364 -0.4420030117034912
          -0.5752090215682983 -0.38005098700523376 -0.7243589758872986 -0.8183860182762146 -0.4608660042285919 -0.34328800439834595
          -0.733119010925293 -0.40774399042129517 -0.5443180203437805 -0.758965015411377 -0.46257999539375305 -0.45824798941612244
          -0.7484269738197327 -0.37911900877952576 -0.5441750288009644 -0.6993190050125122 -0.4238100051879883 -0.5756199955940247
          -0.6607710123062134 -0.6180070042610168 0.4259690046310425 -0.7522119879722595 -0.6100350022315979 0.2490690052509308
          -0.6977279782295227 -0.6323480010032654 0.33661600947380066 0.9178910255432129 0.2897849977016449 -0.27110999822616577
          0.8509330153465271 0.209757000207901 -0.48157599568367004 0.9258480072021484 0.3761900067329407 -0.03587299957871437
          0.6848340034484863 0.10190100222826004 -0.7215390205383301 0.8059809803962708 0.26447001099586487 -0.5295760035514832
          0.7560780048370361 0.1955289989709854 -0.6245909929275513 0.7472259998321533 0.29625600576400757 -0.5948830246925354
          0.12095499783754349 -0.2008409947156906 -0.9721279740333557 -0.2774690091609955 -0.2885189950466156 -0.9163879752159119
          0.40831100940704346 -0.1519549936056137 -0.9001060128211975 0.5785819888114929 -0.027432000264525414 -0.8151630163192749
          0.6713629961013794 0.3772459924221039 0.6379320025444031 0.6231539845466614 0.16613200306892395 0.7642509937286377
          0.6347910165786743 0.477620005607605 0.6073880195617676 0.5287449955940247 0.5848850011825562 0.6150919795036316
          0.7689539790153503 0.6129670143127441 0.1816059947013855 0.8146129846572876 0.5610150098800659 0.14719800651073456
          0.8549540042877197 0.5187000036239624 0.0020979999098926783 0.5540410280227661 0.4690200090408325 0.6877930164337158
          0.38091298937797546 0.5467290282249451 0.745648980140686 0.689719021320343 0.3756200075149536 0.6190299987792969
          0.5154470205307007 0.3175109922885895 0.7959280014038086 0.7155669927597046 0.32313698530197144 0.6193109750747681
          0.683784008026123 0.24501599371433258 0.6873180270195007 0.6870710253715515 0.2980650067329407 0.6626390218734741
          0.9132260084152222 0.3958680033683777 0.09647200256586075 0.9426029920578003 0.333609014749527 -0.014326999895274639
          0.9135389924049377 0.3115819990634918 0.26146399974823 0.8248860239982605 0.26416298747062683 0.499781996011734
          0.3580319881439209 -0.5382630228996277 0.7629460096359253 -0.0022730000782757998 -0.5457199811935425 0.8379650115966797
          -0.026695000007748604 -0.4327940046787262 0.9010980129241943 0.04512999951839447 -0.31328898668289185 0.9485849738121033
          -0.20496800541877747 -0.2498989999294281 0.9463289976119995 -0.47296300530433655 -0.42061400413513184 0.7742030024528503
          -0.2785539925098419 -0.27913498878479004 0.9189620018005371 -0.6127189993858337 -0.49932798743247986 0.6125739812850952
          0.4040440022945404 -0.017285000532865524 0.91457599401474 0.2934330105781555 -0.2998009920120239 0.9077540040016174
          0.7193710207939148 -0.2479189932346344 0.6488779783248901 -0.8030449748039246 -0.5607110261917114 -0.2017969936132431
          -0.7926899790763855 -0.6091729998588562 -0.023447999730706215 -0.7649120092391968 -0.370727002620697 -0.5267559885978699
          -0.7887330055236816 -0.49624601006507874 -0.3628210127353668 -0.5179089903831482 -0.3149630129337311 -0.7953420281410217
          -0.7887589931488037 -0.39831799268722534 -0.4681900143623352 -0.6093459725379944 -0.33701398968696594 -0.7177180051803589
          -0.7071009874343872 -0.4961549937725067 -0.50382399559021 -0.7530840039253235 -0.3913770020008087 -0.52885502576828
          -0.7022140026092529 -0.4236760139465332 -0.5721830129623413 -0.702118992805481 -0.4580160081386566 -0.5452060103416443
          -0.7139509916305542 -0.37395399808883667 -0.5919730067253113 -0.7206429839134216 -0.4678190052509308 -0.5116819739341736
          -0.7229019999504089 -0.6469129920005798 0.24272499978542328 -0.5244789719581604 -0.5368120074272156 0.6608740091323853
          -0.4657309949398041 -0.6688010096549988 0.5794829726219177 -0.5944169759750366 -0.6289740204811096 0.5010579824447632
          0.8889380097389221 0.38395199179649353 -0.24974100291728973 0.8674989938735962 0.3432050049304962 -0.36007800698280334
          0.7258080244064331 0.3964110016822815 -0.562192976474762 0.6834710240364075 0.19555599987506866 -0.7032960057258606
          0.8781819939613342 0.4663139879703522 -0.1065249964594841 0.8345479965209961 0.4253059923648834 -0.3502059876918793
          0.778236985206604 0.5512509942054749 -0.3007799983024597 -0.1144070029258728 -0.24314099550247192 -0.9632200002670288
          0.4112730026245117 -0.043097998946905136 -0.910493016242981 0.0021269998978823423 -0.2378299981355667 -0.9713039994239807
          -0.09373699873685837 -0.2149129956960678 -0.9721239805221558 -0.5232149958610535 -0.2481520026922226 -0.8152710199356079
          -0.287647008895874 -0.2416040003299713 -0.9267619848251343 0.4295650124549866 0.2657720148563385 0.8630409836769104
          0.43261000514030457 0.4470309913158417 0.7829509973526001 0.30695900321006775 0.532600998878479 0.7887409925460815
          0.8173379898071289 0.5429940223693848 0.19265399873256683 0.7808060050010681 0.6056640148162842 0.15333999693393707
          0.8283429741859436 0.5339149832725525 0.1696539968252182 0.3005110025405884 0.35164201259613037 0.8865900039672852
          0.37580400705337524 0.4342930018901825 0.8186330199241638 0.4663090109825134 0.3230080008506775 0.8235419988632202
          0.4491330087184906 0.15756699442863464 0.8794609904289246 0.6177939772605896 0.27726900577545166 0.7358350157737732
          0.39551201462745667 0.1968269944190979 0.8971229791641235 0.6729109883308411 0.2632650136947632 0.691290020942688
          0.6624850034713745 0.23492500185966492 0.7112839818000793 0.6964880228042603 0.2257390022277832 0.6811370253562927
          0.602167010307312 0.21734799444675446 0.7682160139083862 0.9070289731025696 0.4142729938030243 -0.07534199953079224
          0.9007160067558289 0.34904998540878296 -0.25860100984573364 0.9127820134162903 0.3250640034675598 -0.24730899930000305
          0.9371619820594788 0.3121289908885956 -0.1558929979801178 0.9461269974708557 0.3008509874343872 0.11971499770879745
          0.9107159972190857 0.2803339958190918 0.3033309876918793 0.801181972026825 0.23931600153446198 0.5484840273857117
          0.7409909963607788 -0.28653499484062195 0.6073139905929565 -0.04456299915909767 -0.06016499921679497 0.9971929788589478
          0.2954710125923157 -0.055465999990701675 0.9537400007247925 0.9517530202865601 -0.08354800194501877 0.29527199268341064
          -0.10426300019025803 -0.05796999856829643 0.9928590059280396 -0.47591298818588257 -0.403236985206604 0.7816050052642822
          -0.27254098653793335 -0.2051219940185547 0.9400249719619751 -0.046195998787879944 -0.004732999950647354 0.9989209771156311
          -0.527131974697113 -0.4629180133342743 0.7126280069351196 0.32478201389312744 0.06486400216817856 0.9435619711875916
          0.31382301449775696 -0.16280199587345123 0.9354199767112732 -0.8104239702224731 -0.5102689862251282 -0.28781598806381226
          -0.8199530243873596 -0.5714520215988159 -0.03347399830818176 -0.753587007522583 -0.42657899856567383 -0.5001369714736938
          -0.6746320128440857 -0.28627699613571167 -0.6803810000419617 -0.6044520139694214 -0.430651992559433 -0.6702070236206055
          -0.6361200213432312 -0.4555079936981201 -0.6227869987487793 -0.6430069804191589 -0.5542200207710266 -0.5285660028457642
          -0.5209810137748718 -0.31007400155067444 -0.7952560186386108 -0.7524570226669312 -0.5198850035667419 -0.4043869972229004
          -0.7505239844322205 -0.3993909955024719 -0.5264989733695984 -0.7290740013122559 -0.4094879925251007 -0.548425018787384
          -0.7504450082778931 -0.5428919792175293 -0.3769629895687103 -0.8012089729309082 -0.5029320120811462 0.3242279887199402
          -0.8371269702911377 -0.5036100149154663 0.2135310024023056 -0.34320199489593506 -0.5460749864578247 0.7642080187797546
          -0.36732399463653564 -0.34527501463890076 0.863631010055542 -0.3273870050907135 -0.42814499139785767 0.8423240184783936
          -0.3925659954547882 -0.5458359718322754 0.7402399778366089 -0.7149770259857178 -0.49646198749542236 0.4922739863395691
          -0.5288829803466797 -0.4051389992237091 0.7457519769668579 0.7551810145378113 0.37884101271629333 -0.5349590182304382
          0.7230119705200195 0.5353710055351257 -0.4366140067577362 0.684565007686615 0.5830709934234619 -0.4374920129776001
          0.7751079797744751 0.39972299337387085 -0.4893139898777008 0.622501015663147 0.14736099541187286 -0.7686200141906738
          0.8446599841117859 0.5352770090103149 0.005338999908417463 0.7564129829406738 0.6394929885864258 -0.13743600249290466
          0.33380699157714844 -0.1336210072040558 -0.933122992515564 -0.33628201484680176 -0.27277401089668274 -0.9013929963111877
          0.12120799720287323 -0.20654599368572235 -0.9708999991416931 -0.15140800178050995 -0.2609120011329651 -0.9534149765968323
          -0.5445110201835632 -0.2267950028181076 -0.8075100183486938 -0.6015959978103638 -0.21623100340366364 -0.7689769864082336
          -0.6979740262031555 -0.2574320137500763 -0.6682530045509338 0.7688000202178955 0.624422013759613 0.13799700140953064
          0.8125090003013611 0.5822089910507202 0.029350999742746353 0.3595399856567383 0.44518598914146423 0.8200860023498535
          0.1608940064907074 0.21430900692939758 0.9634230136871338 0.29495498538017273 0.3680660128593445 0.881775975227356
          0.4100460112094879 0.311504989862442 0.8572199940681458 0.4218359887599945 0.10621000081300735 0.9004300236701965
          0.27070799469947815 0.06252899765968323 0.9606289863586426 0.26318100094795227 0.1790049970149994 0.9479939937591553
          0.5495569705963135 0.16511400043964386 0.8189780116081238 0.6818320155143738 0.18584999442100525 0.707506000995636
          0.8214030265808105 0.5264430046081543 -0.21944299340248108 0.776386022567749 0.47231999039649963 -0.4172990024089813
          0.8425449728965759 0.30902099609375 -0.44116100668907166 0.9669190049171448 0.25506600737571716 0.0029430000577121973
          0.9421820044517517 0.26848700642585754 -0.20051699876785278 0.8873429894447327 0.2642959952354431 -0.3778490126132965
          0.9366379976272583 0.2576240003108978 0.23736000061035156 0.7073220014572144 0.17372499406337738 0.6852120161056519
          0.8677420020103455 0.20062300562858582 0.4547240138053894 0.038676999509334564 0.1149429976940155 0.992618978023529
          0.1326269954442978 0.1764650046825409 0.9753310084342957 -0.025366999208927155 -0.06735499948263168 0.9974070191383362
          0.09898100048303604 0.12672600150108337 0.9869869947433472 -0.869566023349762 -0.4935300052165985 -0.01683099940419197
          -0.8494830131530762 -0.49400898814201355 -0.18529599905014038 -0.4009299874305725 -0.39665600657463074 -0.8257840275764465
          -0.6011580228805542 -0.432900995016098 -0.6717190146446228 -0.6380339860916138 -0.5342640280723572 -0.5545049905776978
          -0.6408349871635437 -0.49980100989341736 -0.58269202709198 -0.531673014163971 -0.5450500249862671 -0.6482629776000977
          -0.6167510151863098 -0.4598749876022339 -0.6388530135154724 -0.41339701414108276 -0.22886399924755096 -0.8813199996948242
          -0.7885810136795044 -0.5227850079536438 -0.3237839937210083 -0.8381620049476624 -0.37880799174308777 -0.39241400361061096
          -0.9046519994735718 -0.37606000900268555 -0.20045900344848633 -0.873354971408844 -0.31363600492477417 -0.3726699948310852
          -0.7211019992828369 -0.5762810111045837 -0.38459399342536926 -0.7665110230445862 -0.5849069952964783 -0.26522698998451233
          -0.6875569820404053 -0.577580988407135 -0.44007399678230286 -0.8450000286102295 -0.5023120045661926 -0.18346300721168518
          -0.6927869915962219 -0.31587499380111694 0.648281991481781 -0.8771520256996155 -0.3965719938278198 0.2708030045032501
          -0.8731600046157837 -0.46395498514175415 0.1494559943675995 -0.17544199526309967 -0.3585050106048584 0.9168940186500549
          -0.23522500693798065 -0.4421350061893463 0.8655549883842468 -0.14145000278949738 -0.28727999329566956 0.9473450183868408
          -0.30966898798942566 -0.3140459954738617 0.8974850177764893 -0.6558759808540344 -0.40011900663375854 0.6401020288467407
          -0.4049049913883209 -0.15943999588489532 0.9003499746322632 -0.5578160285949707 -0.28029799461364746 0.7811999917030334
          0.7449600100517273 0.6281359791755676 -0.22467699646949768 0.6838210225105286 0.3480350077152252 -0.6412960290908813
          0.7798370122909546 0.5225229859352112 -0.34470900893211365 0.5966280102729797 0.20531600713729858 -0.7758100032806396
          0.4663040041923523 0.0491890013217926 -0.8832560181617737 0.2892970144748688 -0.052306998521089554 -0.9558089971542358
          -0.2561030089855194 -0.16670900583267212 -0.9521660208702087 -0.43119001388549805 -0.12268800288438797 -0.8938810229301453
          0.031091000884771347 -0.11007999628782272 -0.9934359788894653 0.2528659999370575 0.04434200003743172 -0.966484010219574
          -0.7507230043411255 -0.1939619928598404 -0.6315010190010071 -0.5963190197944641 -0.04475000128149986 -0.8014990091323853
          -0.6977180242538452 -0.1099729984998703 -0.707880973815918 0.2041269987821579 0.07035399973392487 0.9764130115509033
          -0.04928300157189369 0.12228900194168091 0.9912700057029724 0.17081600427627563 0.17083099484443665 0.9703810214996338
          0.4853149950504303 0.08154799789190292 0.870527982711792 0.3326900005340576 0.05220799893140793 0.9415900111198425
          0.61319899559021 0.14997200667858124 0.7755619883537292 0.7596830129623413 0.5629969835281372 -0.3254469931125641
          0.6343839764595032 0.4229179918766022 -0.647068977355957 0.5996649861335754 0.616657018661499 -0.51003497838974
          0.7208300232887268 0.29779401421546936 -0.6258779764175415 0.712215006351471 0.2785620093345642 -0.644324004650116
          0.7459369897842407 0.19510599970817566 -0.6367980241775513 0.9511250257492065 0.23852400481700897 -0.19613400101661682
          0.9761430025100708 0.19577699899673462 0.09389299899339676 0.9669659733772278 0.1941549926996231 -0.1651650071144104
          0.9166160225868225 0.2635209858417511 -0.30062100291252136 0.6961629986763 0.14830400049686432 -0.7023980021476746
          0.8521599769592285 0.16234900057315826 -0.4974600076675415 0.9456340074539185 0.21690000593662262 0.24234600365161896
          0.7531470060348511 0.15097400546073914 0.6402940154075623 0.9162449836730957 0.1783429980278015 0.35873299837112427
          0.09597299993038177 0.057693000882864 0.993710994720459 -0.1177930012345314 -0.15073800086975098 0.981531023979187
          -0.9544510245323181 -0.29415398836135864 -0.04996899887919426 -0.9386429786682129 -0.2781420052051544 -0.20392900705337524
          -0.4538469910621643 -0.4147309958934784 -0.7886829972267151 -0.2494329959154129 -0.3054859936237335 -0.9189460277557373
          -0.5323749780654907 -0.5521270036697388 -0.6416640281677246 -0.5033910274505615 -0.5199970006942749 -0.6900730133056641
          -0.4624989926815033 -0.43925100564956665 -0.7701650261878967 -0.10077399760484695 -0.16954299807548523 -0.9803569912910461
          -0.18008899688720703 -0.03722900152206421 -0.98294597864151 -0.4193649888038635 0.02001900039613247 -0.907597005367279
          -0.9337520003318787 -0.26493600010871887 -0.24065600335597992 -0.948997974395752 -0.3124909996986389 0.041873998939991