<?xml version="1.0"?>
<VTKFile type="PolyData" version="0.1" byte_order="LittleEndian" header_type="UInt32" compressor="vtkZLibDataCompressor">
  <PolyData>
    <Piece NumberOfPoints="1997" NumberOfVerts="0" NumberOfLines="0" NumberOfStrips="0" NumberOfPolys="3990">
      <PointData Normals="Normals">
        <DataArray type="Float32" Name="Normals" NumberOfComponents="3" format="ascii" RangeMin="0.9999993225164606" RangeMax="1.000000827918824">
          -0.09869500249624252 -0.9575240015983582 -0.2709389925003052 -0.0470849983394146 -0.8964750170707703 -0.4405849874019623
          -0.020694000646471977 -0.9966899752616882 0.0786139965057373 -0.2637670040130615 -0.9640470147132874 -0.03227100148797035
          -0.22168999910354614 -0.8541460037231445 -0.4704129993915558 -0.39709800481796265 -0.8700389862060547 -0.29214000701904297
          -0.04595699906349182 -0.9934539794921875 -0.10458099842071533 0.10884000360965729 -0.9047629833221436 -0.41177400946617126
          -0.0326710008084774 -0.8449209928512573 -0.5338929891586304 -0.33182498812675476 -0.7265440225601196 -0.6016860008239746
          -0.2505509853363037 -0.7381799817085266 -0.6263499855995178 -0.0486919991672039 -0.9004089832305908 0.43231201171875
          -0.08624400198459625 -0.9078599810600281 0.41030699014663696 -0.12288700044155121 -0.9648709893226624 0.23221200704574585
          -0.4599590003490448 -0.8536859750747681 0.24424800276756287 -0.3058229982852936 -0.8743039965629578 0.37691399455070496
          -0.447037011384964 -0.8909339904785156 -0.07996699959039688 -0.34298500418663025 -0.8029199838638306 -0.48752498626708984
          -0.5524479746818542 -0.8257960081100464 -0.11341200023889542 -0.5772709846496582 -0.7383540272712708 -0.34869998693466187
          -0.5145660042762756 -0.7495219707489014 -0.41645899415016174 -0.07846699655056 -0.9667739868164062 0.2432900071144104
          0.0679439976811409 -0.9950850009918213 -0.07203400135040283 0.2694930136203766 -0.9344900250434875 -0.23259800672531128
          0.1580599993467331 -0.8883699774742126 -0.4310629963874817 0.31247401237487793 -0.8665819764137268 -0.3890959918498993
          0.1778780072927475 -0.9306089878082275 -0.3198849856853485 0.011540999636054039 -0.9089589715003967 -0.4167270064353943
          -0.2272000014781952 -0.8606410026550293 -0.45571601390838623 -0.467305988073349 -0.7404429912567139 -0.4830839931964874
          -0.4850130081176758 -0.5790969729423523 -0.6552940011024475 -0.6679490208625793 -0.5441920161247253 -0.5076410174369812
          -0.42080798745155334 -0.6704630255699158 -0.6110649704933167 -0.4443190097808838 -0.6002659797668457 -0.6650270223617554
          -0.10863199830055237 -0.7813119888305664 0.6146140098571777 -0.03753399848937988 -0.5925210118293762 0.8046799898147583
          -0.15812799334526062 -0.7092419862747192 0.6870020031929016 -0.08110400289297104 -0.7922220230102539 0.6048189997673035
          -0.31172600388526917 -0.7813490033149719 0.5406669974327087 -0.28261199593544006 -0.7495989799499512 0.5985239744186401
          -0.46950098872184753 -0.8582339882850647 0.20737500488758087 -0.6502709984779358 -0.7550179958343506 -0.08423800021409988
          -0.5973950028419495 -0.7860130071640015 0.15907199680805206 -0.5544620156288147 -0.6146330237388611 -0.5610690116882324
          -0.6698200106620789 -0.658270001411438 -0.3435420095920563 0.06110300123691559 -0.9498119950294495 0.30679500102996826
          0.19527000188827515 -0.9780970215797424 0.07208400219678879 0.39194101095199585 -0.9196789860725403 0.023914000019431114
          0.476377010345459 -0.8522689938545227 -0.21610599756240845 0.25071701407432556 -0.8689339756965637 -0.42672500014305115
          0.4305790066719055 -0.8887640237808228 -0.15716199576854706 0.4236240088939667 -0.858128011226654 -0.29010099172592163
          0.46916699409484863 -0.83263099193573 -0.29429298639297485 0.22424399852752686 -0.965304970741272 -0.13379299640655518
          -0.0076939999125897884 -0.9416239857673645 -0.33657699823379517 0.009418999776244164 -0.9781349897384644 -0.20775899291038513
          -0.31443101167678833 -0.8939459919929504 -0.3193640112876892 -0.5216779708862305 -0.7688289880752563 -0.36980199813842773
          -0.6034910082817078 -0.5368120074272156 -0.5896030068397522 -0.6333039999008179 -0.4096370041370392 -0.6565989851951599
          -0.5830519795417786 -0.7622519731521606 -0.2811090052127838 -0.7068049907684326 -0.3638089895248413 -0.6066870093345642
          -0.7319210171699524 -0.6137030124664307 -0.2960749864578247 -0.8488439917564392 -0.3612099885940552 -0.38599300384521484
          -0.881289005279541 -0.37858399748802185 -0.2828480005264282 -0.7855759859085083 -0.3150539994239807 -0.5325520038604736
          -0.09070000052452087 -0.606997013092041 0.7895110249519348 -0.12114100158214569 -0.5035780072212219 0.8554149866104126
          -0.05133900046348572 -0.39433199167251587 0.9175329804420471 -0.017719000577926636 -0.3669860064983368 0.9300569891929626
          -0.20864999294281006 -0.6849460005760193 0.698078989982605 -0.07204300165176392 -0.5693190097808838 0.8189539909362793
          0.005274000111967325 -0.7364609837532043 0.6764600276947021 -0.43810901045799255 -0.7568699717521667 0.48498401045799255
          -0.24094299972057343 -0.5262590050697327 0.8154739737510681 -0.7741490006446838 -0.6319829821586609 -0.03592300042510033
          -0.6789230108261108 -0.698261022567749 0.22692500054836273 -0.5550010204315186 -0.7331900000572205 0.39294499158859253
          -0.7421820163726807 -0.5753650069236755 -0.3436869978904724 0.10936199873685837 -0.9069460034370422 0.4068030118942261
          0.15976299345493317 -0.9149860143661499 0.37050899863243103 0.5444930195808411 -0.8351579904556274 -0.07770899683237076
          0.5332779884338379 -0.8414080142974854 0.08744499832391739 0.34981200098991394 -0.8560569882392883 0.3805229961872101
          0.2240470051765442 -0.8817809820175171 0.4150489866733551 0.653469979763031 -0.744579017162323 -0.13630299270153046
          0.6607159972190857 -0.7213339805603027 -0.20768100023269653 0.6054369807243347 -0.794281005859375 0.05063199996948242
          0.6814240217208862 -0.7160789966583252 -0.15129899978637695 0.48664700984954834 -0.8685389757156372 0.09388899803161621
          0.3648039996623993 -0.9310830235481262 0.001724999980069697 0.24255600571632385 -0.9583340287208557 0.15087300539016724
          0.44221198558807373 -0.8717219829559326 0.21106800436973572 0.05722299963235855 -0.9937000274658203 -0.09636399894952774
          -0.24943700432777405 -0.9649549722671509 -0.08149900287389755 -0.4872080087661743 -0.8465819954872131 -0.2143079936504364
          -0.6577849984169006 -0.4632610082626343 -0.593891978263855 -0.769465982913971 -0.40999799966812134 -0.4897190034389496
          -0.7183150053024292 -0.29542800784111023 -0.6298779845237732 -0.710657000541687 -0.2505050003528595 -0.6574310064315796
          -0.5155230164527893 -0.8534409999847412 -0.07665099948644638 -0.7672230005264282 -0.6312270164489746 -0.1136699989438057
          -0.6565030217170715 -0.7393509745597839 -0.14954400062561035 -0.8538849949836731 -0.5067790150642395 -0.11855299770832062
          -0.8942620158195496 -0.23578600585460663 -0.38039499521255493 -0.9447069764137268 -0.24547900259494781 -0.21741600334644318
          -0.9299269914627075 -0.3546519875526428 -0.0972519963979721 -0.8690850138664246 -0.026290999725461006 -0.49396398663520813
          -0.053369998931884766 -0.25870901346206665 0.9644799828529358 -0.05288900062441826 -0.5434610247612 0.8377670049667358
          -0.08296100050210953 -0.4812150001525879 0.8726680278778076 -0.009703000076115131 -0.16447100043296814 0.9863340258598328
          -0.09994500130414963 -0.2615160048007965 0.9600099921226501 0.024237999692559242 -0.25453299283981323 0.966759979724884
          0.007691000122576952 -0.710004985332489 0.7041550278663635 -0.3824700117111206 -0.5890740156173706 0.7118350267410278
          -0.3245660066604614 -0.4678570032119751 0.8220509886741638 -0.18320000171661377 -0.2892490029335022 0.9395599961280823
          -0.8589699864387512 -0.48031899333000183 -0.17737899720668793 -0.8019430041313171 -0.524740993976593 0.28554201126098633
          -0.9020569920539856 -0.42951899766921997 0.04251199960708618 -0.6702319979667664 -0.5429139733314514 0.5059970021247864
          -0.6314839720726013 -0.6498510241508484 0.422991007566452 -0.4885759949684143 -0.5722150206565857 0.6586830019950867
          0.012846999801695347 -0.7026619911193848 0.7114080190658569 0.6730890274047852 -0.7121850252151489 0.19935999810695648
          0.472817987203598 -0.7751740217208862 0.4189859926700592 0.08579400181770325 -0.6828100085258484 0.7255409955978394
          0.1713780015707016 -0.6488140225410461 0.7413979768753052 0.7452340126037598 -0.6648240089416504 0.051325999200344086
          0.8309149742126465 -0.5551789999008179 -0.036837998777627945 0.7571380138397217 -0.6396039724349976 -0.13284599781036377
          0.764277994632721 -0.6445879936218262 0.019646000117063522 0.6661930084228516 -0.725238025188446 0.17382900416851044
          0.3198719918727875 -0.8887280225753784 0.3283970057964325 0.1171720027923584 -0.9698039889335632 0.2138960063457489
          0.6308730244636536 -0.6646559834480286 0.40029001235961914 -0.08516699820756912 -0.9953190088272095 0.04568000137805939
          -0.05911000072956085 -0.985988974571228 0.1559869945049286 -0.22001799941062927 -0.9685450196266174 0.11624199897050858
          -0.827908992767334 -0.23392200469970703 -0.50975102186203 -0.9168189764022827 -0.32744699716567993 -0.2285189926624298
          -0.697825014591217 -0.1824759989976883 -0.6926339864730835 -0.7543290257453918 -0.1707250028848648 -0.6339089870452881
          -0.7160729765892029 -0.03486799821257591 -0.6971539855003357 -0.45292600989341736 -0.888077974319458 0.07858800143003464
          -0.6163859963417053 -0.7874019742012024 -0.008208000101149082 -0.6479560136795044 -0.7613210082054138 0.02333500050008297
          -0.8091700077056885 -0.5875530242919922 -0.005016000010073185 -0.9047499895095825 -0.42247501015663147 -0.054249998182058334
          0.1754000037908554 -0.5161100029945374 -0.8383709788322449 -0.8895440101623535 -0.0456169992685318 -0.45456600189208984
          -0.9826449751853943 -0.17876900732517242 -0.04950400069355965 -0.966795027256012 -0.12637899816036224 -0.22211399674415588
          -0.942704975605011 0.05161599814891815 -0.32961100339889526 -0.9283109903335571 0.15539999306201935 -0.3377699851989746
          -0.8745549917221069 0.14998599886894226 -0.4611490070819855 -0.7403320074081421 0.13193100690841675 -0.6591690182685852
          -0.01375999953597784 -0.1216759979724884 0.9924740195274353 -0.07445800304412842 -0.45684298872947693 0.8864250183105469
          -0.07564999908208847 -0.12663200497627258 0.9890609979629517 0.06855399906635284 -0.4227840006351471 0.9036340117454529
          0.09121199697256088 -0.33638399839401245 0.937296986579895 0.01055500004440546 -0.24311700463294983 0.9699400067329407
          -0.006930999923497438 -0.4411329925060272 0.8974149823188782 -0.10885100066661835 -0.1475590020418167 0.9830449819564819
          -0.33033499121665955 -0.36559298634529114 0.8701840043067932 -0.10429999977350235 -0.14733099937438965 0.9835720062255859
          -0.5759590268135071 -0.4088599979877472 0.7078869938850403 -0.757951021194458 -0.3899419903755188 0.5229309797286987
          -0.8659870028495789 -0.3882569968700409 0.3151560127735138 -0.9402999877929688 -0.3102250099182129 0.13998499512672424
          -0.85030198097229 -0.31094399094581604 0.4246180057525635 0.6373800039291382 -0.6847519874572754 0.3533569872379303
          0.5930600166320801 -0.5856580138206482 0.5525259971618652 0.5581110119819641 -0.6602479815483093 0.5025789737701416
          0.6301389932632446 -0.571012020111084 0.5261849761009216 0.8117020130157471 -0.5566530227661133 0.1768530011177063
          0.28171199560165405 -0.588513970375061 0.7578189969062805 0.8781070113182068 -0.47693800926208496 0.03819800168275833
          0.8951079845428467 -0.4322820007801056 0.10914800316095352 0.7909899950027466 -0.5584080219268799 0.2500320076942444
          0.8320490121841431 -0.5113549828529358 0.2149689942598343 0.42138200998306274 -0.8357629776000977 0.35204699635505676
          0.2770310044288635 -0.9371950030326843 0.21194100379943848 0.1183290034532547 -0.9630889892578125 0.24178199470043182
          0.032322999089956284 -0.9791970252990723 0.2003220021724701 0.6140220165252686 -0.6652699708938599 0.4247269928455353
          0.7416059970855713 -0.5217750072479248 0.42163100838661194 0.5935919880867004 -0.7480949759483337 0.2966510057449341
          0.6751890182495117 -0.5964699983596802 0.43398600816726685 0.8313760161399841 -0.4533120095729828 0.3214389979839325
          0.6653760075569153 -0.5355460047721863 0.5200629830360413 0.7514060139656067 -0.4207499921321869 0.5082899928092957
          0.02305000089108944 -0.985073983669281 0.17058199644088745 -0.41974300146102905 -0.9008529782295227 0.11081799864768982
          -0.3899820148944855 -0.9177029728889465 0.07573399692773819 0.1260329931974411 -0.9908769726753235 0.04772200062870979
          -0.17765000462532043 -0.983788013458252 -0.0245130006223917 -0.935437023639679 -0.1613900065422058 -0.3145020008087158
          -0.95135498046875 -0.22876399755477905 -0.20637600123882294 -0.8096780180931091 -0.1393270045518875 -0.5700960159301758
          -0.8246740102767944 -0.06786300241947174 -0.5615220069885254 -0.9704859852790833 -0.23104800283908844 0.06909900158643723
          -0.6690530180931091 0.02462499961256981 -0.7428060173988342 -0.7990549802780151 -0.13519200682640076 -0.5858619809150696
          -0.6517360210418701 -0.056724999099969864 -0.7563220262527466 -0.6430580019950867 -0.00028899998869746923 -0.7658169865608215
          -0.8153319954872131 -0.5761029720306396 -0.057787999510765076 -0.4550290107727051 -0.8885790109634399 -0.058104999363422394
          -0.712315022945404 -0.6886069774627686 -0.13574999570846558 -0.9718819856643677 -0.2203570008277893 -0.0829939991235733
          -0.9585819840431213 -0.21295000612735748 -0.18913699686527252 -0.9172620177268982 -0.34727200865745544 -0.1950179934501648
          0.8746129870414734 0.0783189982175827 -0.47845301032066345 0.917087972164154 -0.0006580000044777989 -0.3986850082874298
          -0.9884780049324036 0.0869550034403801 -0.12389899790287018 -0.9993370175361633 0.011985000222921371 -0.034384001046419144
          -0.9940109848976135 0.10928100347518921 0.0001539999939268455 -0.9754570126533508 0.10539600253105164 -0.19332599639892578
          -0.9489690065383911 0.15885299444198608 -0.27243900299072266 -0.8328059911727905 0.09750799834728241 -0.5449090003967285
          -0.9151219725608826 0.10134299844503403 -0.39023301005363464 -0.6582009792327881 0.0368879996240139 -0.751937985420227
          -0.028220999985933304 -0.13799099624156952 0.9900310039520264 -0.13346099853515625 -0.14348000288009644 0.9806129932403564
          0.222243994474411 -0.4222550094127655 0.8788110017776489 0.19799299538135529 -0.3483859896659851 0.9162020087242126
          0.38947799801826477 -0.45616498589515686 0.800137996673584 0.141867995262146 -0.2811099886894226 0.9491320252418518
          0.14105699956417084 -0.22751200199127197 0.9635050296783447 0.14983299374580383 -0.10987699776887894 0.9825869798660278
          -0.0807500034570694 -0.21602700650691986 0.9730430245399475 0.036646001040935516 -0.07655899971723557 0.9963909983634949
          -0.03760699927806854 -0.15581999719142914 0.9870690107345581 -0.3744199872016907 -0.24490700662136078 0.8943319916725159
          -0.010075000114738941 -0.16988900303840637 0.9854120016098022 -0.08080899715423584 -0.12174999713897705 0.9892659783363342
          -0.31512901186943054 -0.1630759984254837 0.9349330067634583 -0.5780979990959167 -0.3040449917316437 0.7572050094604492
          -0.7572110295295715 -0.3028559982776642 0.5787140130996704 -0.8589349985122681 -0.25528600811958313 0.443913996219635
          -0.9142069816589355 -0.232341006398201 0.33202800154685974 -0.6126840114593506 -0.2243639975786209 0.7578120231628418
          -0.7439540028572083 -0.22644199430942535 0.6286939978599548 0.5010169744491577 -0.5740020275115967 0.6476920247077942
          0.6676459908485413 -0.6241899728775024 0.4057520031929016 0.3902530074119568 -0.45594099164009094 0.799888014793396
          0.5440019965171814 -0.5176920294761658 0.6603469848632812 0.4235970079898834 -0.5381019711494446 0.7287060022354126
          0.873678982257843 -0.38224199414253235 0.3009589910507202 0.7579290270805359 -0.4201340079307556 0.4990299940109253
          0.936942994594574 -0.3479500114917755 0.03268299996852875 0.9008359909057617 -0.4113360047340393 0.13891799747943878
          0.9132580161094666 -0.33434799313545227 0.2327450066804886 0.9706349968910217 -0.21393300592899323 0.1100040003657341
          0.8674160242080688 -0.4062440097332001 0.2873240113258362 0.4946880042552948 -0.858144998550415 0.1373720020055771
          0.5208190083503723 -0.853663980960846 -0.0022700000554323196 0.3464779853820801 -0.9360340237617493 0.06158800050616264
          0.7115430235862732 -0.603111982345581 0.36050400137901306 0.849111020565033 -0.23823200166225433 0.47144100069999695
          0.8818259835243225 -0.2914319932460785 0.3707430064678192 0.7425370216369629 -0.44942599534988403 0.496643990278244
          0.8699809908866882 -0.4590330123901367 0.1800609976053238 0.8273100256919861 -0.45694100856781006 0.32674500346183777
          0.8363829851150513 -0.547664999961853 0.022971000522375107 0.687047004699707 -0.7248910069465637 0.049995001405477524
          0.7798399925231934 -0.5845239758491516 0.22401300072669983 0.8806930184364319 -0.28753700852394104 0.37643301486968994
          0.80622398853302 -0.28723299503326416 0.517204999923706 0.337552011013031 -0.9183300137519836 -0.20670899748802185
          0.46577200293540955 -0.8609300255775452 -0.204585000872612 0.35892999172210693 -0.9295110106468201 -0.08473300188779831
          0.11641299724578857 -0.973514974117279 -0.19676800072193146 0.04323099926114082 -0.9336979985237122 -0.35544198751449585
          -0.2255209982395172 -0.9510189890861511 -0.21143099665641785 -0.9924579858779907 -0.08173300325870514 0.09136500209569931
          -0.9416049718856812 0.04627599939703941 -0.33352500200271606 -0.7119550108909607 -0.0014830000000074506 -0.7022240161895752
          -0.806613028049469 0.10895899683237076 -0.5809500217437744 -0.9282739758491516 -0.16207100450992584 0.3347240090370178
          -0.651714026927948 0.04665999859571457 -0.7570279836654663 -0.6117330193519592 0.04821399971842766 -0.7895939946174622
          -0.8661620020866394 -0.4329789876937866 -0.24958400428295135 -0.8133090138435364 -0.5529199838638306 -0.18112899363040924
          -0.60589599609375 -0.7738800048828125 -0.18438999354839325 -0.4412490129470825 -0.8432620167732239 -0.3069339990615845
          -0.5995420217514038 -0.6685879826545715 -0.4399310052394867 -0.7343980073928833 -0.5236409902572632 -0.4318099915981293
          -0.9898920059204102 -0.011316999793052673 -0.1413709968328476 -0.9560329914093018 -0.08167699724435806 -0.2816540002822876
          -0.9108660221099854 -0.21454399824142456 -0.35255399346351624 -0.9681829810142517 0.24173599481582642 -0.06469400227069855
          -0.9464520215988159 0.2649349868297577 -0.18449600040912628 -0.9937019944190979 0.11198599636554718 -0.003930999897420406
          -0.9961959719657898 0.02742600068449974 -0.08271399885416031 -0.9935100078582764 0.11320900171995163 0.011070000007748604
          -0.9568549990653992 0.1794710010290146 -0.2285120040178299 -0.888725996017456 -0.11088799685239792 -0.4448249936103821
          -0.9593480229377747 -0.04106200113892555 -0.2792240083217621 -0.8430129885673523 -0.09900300204753876 -0.528702974319458
          -0.7480040192604065 -0.08305499702692032 -0.6584770083427429 -0.6954100131988525 -0.07633999735116959 -0.7145469784736633
          -0.7692009806632996 -0.08975499868392944 -0.6326720118522644 0.33482998609542847 -0.3573090136051178 0.8719050288200378
          0.34262600541114807 -0.18672199547290802 0.9207289814949036 0.3258019983768463 -0.06040799990296364 0.9435060024261475
          0.4930880069732666 -0.12869100272655487 0.8604090213775635 -0.0029639999847859144 -0.24080799520015717 0.9705680012702942
          0.17996999621391296 -0.07542300224304199 0.9807760119438171 0.021995000541210175 -0.09194300323724747 0.9955210089683533
          0.030358999967575073 -0.01956300064921379 0.999347984790802 -0.0981459990143776 -0.19134999811649323 0.9766029715538025
          -0.28088998794555664 -0.1546649932861328 0.9471949934959412 -0.5149620175361633 -0.16140100359916687 0.8418809771537781
          -0.8220670223236084 -0.17776000499725342 0.5409319996833801 -0.6713250279426575 -0.10869999974966049 0.733148992061615
          0.4538390040397644 -0.333530992269516 0.8263090252876282 0.5683959722518921 -0.47755300998687744 0.6699770092964172
          0.7402240037918091 -0.2639569938182831 0.6183810234069824 0.8989840149879456 -0.2178650051355362 0.37995100021362305
          0.8326849937438965 -0.21428200602531433 0.5106059908866882 0.6171540021896362 -0.27695900201797485 0.7364879846572876
          0.9563379883766174 -0.22763699293136597 0.18330299854278564 0.951665997505188 -0.21095000207424164 0.2232310026884079
          0.9669960141181946 -0.04735599830746651 0.25035199522972107 0.9545419812202454 -0.11945900321006775 0.27309098839759827
          0.7668049931526184 -0.6008359789848328 -0.22584499418735504 0.5498549938201904 -0.8264200091362 -0.12119899690151215
          0.8937249779701233 -0.17631299793720245 0.4125159978866577 0.8552359938621521 -0.21637199819087982 0.4709089994430542
          0.9245420098304749 -0.08366700261831284 0.37178099155426025 0.8760939836502075 -0.13749900460243225 0.462117999792099
          0.9122170209884644 -0.24201799929141998 0.3305869996547699 0.9372109770774841 -0.2903609871864319 0.19319699704647064
          0.8926540017127991 -0.4507240056991577 -0.003984999842941761 0.9504619836807251 -0.2798529863357544 -0.1352899968624115
          0.9635469913482666 -0.25336000323295593 -0.08594399690628052 0.9689090251922607 -0.2473219931125641 0.0068789999932050705
          0.9029620289802551 -0.33426201343536377 -0.2700510025024414 0.8496000170707703 -0.21071399748325348 0.4835070073604584
          0.9452199935913086 -0.10364300012588501 0.30954399704933167 0.5377810001373291 -0.7581499814987183 -0.3687810003757477
          0.44607800245285034 -0.8073980212211609 -0.38616400957107544 0.29814401268959045 -0.8938009738922119 -0.33500900864601135
          0.7114490270614624 -0.5821760296821594 -0.39358800649642944 0.30069300532341003 -0.8731399774551392 -0.38367900252342224
          0.33927300572395325 -0.7697489857673645 -0.5407220125198364 -0.1896670013666153 -0.9221069812774658 -0.33726099133491516
          -0.0035379999317228794 -0.8356959819793701 -0.5491799712181091 0.2647089958190918 -0.7405030131340027 -0.6177250146865845
          -0.8508449792861938 -0.05756700038909912 0.5222539901733398 -0.9958829879760742 0.06526900082826614 -0.06290999799966812
          -0.9163219928741455 0.011667000129818916 0.40027299523353577 -0.9691960215568542 0.05797300115227699 0.23937100172042847
          -0.9819089770317078 0.12863899767398834 0.13895000517368317 -0.9612799882888794 0.18959900736808777 -0.19998300075531006
          -0.8717690110206604 0.2418079972267151 -0.4260840117931366 -0.7169749736785889 0.12861600518226624 -0.6851310133934021
          -0.7092249989509583 0.13297000527381897 -0.6923279762268066 -0.7849979996681213 -0.0006389999762177467 -0.6194980144500732
          -0.8281540274620056 -0.4410549998283386 -0.3458769917488098 -0.7852550148963928 -0.2886640131473541 -0.5477659702301025
          -0.8693810105323792 -0.2845030128955841 -0.4040229916572571 -0.3100520074367523 -0.7951359748840332 -0.5211790204048157
          -0.2735759913921356 -0.6237940192222595 -0.7321460247039795 -0.4988290071487427 -0.5147759914398193 -0.6972630023956299
          -0.6664770245552063 -0.3455060124397278 -0.660631000995636 -0.9873340129852295 0.055778998881578445 -0.14852699637413025
          -0.8766109943389893 -0.0349700003862381 -0.47992798686027527 -0.9262089729309082 0.09686300158500671 -0.3643540143966675
          -0.8050199747085571 -0.12778900563716888 -0.579321026802063 -0.9482709765434265 0.28468799591064453 -0.14048300683498383
          -0.9816340208053589 0.16075800359249115 -0.10272300243377686 -0.9832730293273926 0.1793459951877594 0.0317550003528595
          -0.9917969703674316 0.11317499727010727 -0.059422001242637634 -0.9923719763755798 -0.059342000633478165 -0.10805600136518478
          -0.9969519972801208 -0.044721998274326324 -0.06392999738454819 -0.9821879863739014 -0.16505199670791626 -0.08980300277471542
          -0.9807509779930115 -0.06683400273323059 -0.1834689974784851 -0.7621260285377502 -0.21981200575828552 -0.6089730262756348
          -0.8910179734230042 -0.28242701292037964 -0.35541900992393494 -0.9374539852142334 -0.2349890023469925 -0.2568260133266449
          -0.79236900806427 -0.20148900151252747 -0.5758069753646851 -0.8553919792175293 -0.05446000024676323 -0.5151100158691406
          -0.9189339876174927 -0.1312749981880188 -0.3719229996204376 -0.8776530027389526 -0.18168699741363525 -0.4435249865055084
          0.4993799924850464 -0.03173299878835678 0.865801990032196 0.6881679892539978 -0.17551599442958832 0.7040020227432251
          0.5961160063743591 -0.07342600077390671 0.799534022808075 -0.04158199951052666 -0.1707649976015091 0.9844340085983276
          0.39567700028419495 -0.0907440036535263 0.9138950109481812 0.2506510019302368 -0.03516300022602081 0.9674389958381653
          0.10824599862098694 0.04650000110268593 0.9930359721183777 -0.058455001562833786 -0.005582000128924847 0.998274028301239
          0.015351999551057816 0.08470600098371506 0.996288001537323 0.11104799807071686 0.13415099680423737 0.9847189784049988
          -0.09858900308609009 -0.16982200741767883 0.9805309772491455 -0.2041430026292801 -0.09734500199556351 0.9740890264511108
          -0.4507240056991577 -0.09475599974393845 0.8876199722290039 -0.6798250079154968 0.016251999884843826 0.7331939935684204
          -0.4687109887599945 0.009482000023126602 0.8833010196685791 0.7509689927101135 -0.05063899978995323 0.6583930253982544
          0.8975139856338501 -0.10111299902200699 0.4292379915714264 0.8838250041007996 -0.005274999886751175 0.4677880108356476
          0.9367769956588745 0.031964998692274094 0.3484629988670349 0.8500940203666687 0.10343199968338013 0.5163739919662476
          0.8271210193634033 -0.33956098556518555 -0.44784900546073914 0.7903689742088318 -0.4263469874858856 -0.4399369955062866
          0.9640359878540039 -0.10388199985027313 0.24462899565696716 0.9962779879570007 0.05389099940657616 0.06728199869394302
          0.9764689803123474 0.09244100004434586 0.1948390007019043 0.9091330170631409 0.03908500075340271 0.4146679937839508
          0.8227580189704895 -0.08674299716949463 0.5617330074310303 0.9993510246276855 -0.03513199836015701 -0.007964000105857849
          0.9958270192146301 -0.08556199818849564 -0.03173299878835678 0.9383820295333862 -0.11989899724721909 -0.32413598895072937
          0.9556609988212585 -0.10151900351047516 -0.27641499042510986 0.9672170281410217 -0.040585000067949295 -0.25068798661231995
          0.9193019866943359 -0.07691100239753723 -0.3859649896621704 0.8912019729614258 -0.13779599964618683 -0.4321709871292114
          0.8609510064125061 -0.08569800108671188 0.5014169812202454 0.9005630016326904 -0.019060999155044556 0.4343070089817047
          0.6266090273857117 -0.566694974899292 -0.5349929928779602 0.4427010118961334 -0.775738000869751 -0.44971901178359985
          0.6277980208396912 -0.5711460113525391 -0.5288310050964355 0.43636998534202576 -0.775413990020752 -0.45641499757766724
          0.4750080108642578 -0.7315850257873535 -0.48903000354766846 0.740011990070343 -0.31807899475097656 -0.5926290154457092
          0.7813569903373718 -0.2759220004081726 -0.5597760081291199 0.5096139907836914 -0.6419020295143127 -0.5729359984397888
          0.4952850043773651 -0.5391070246696472 -0.6812160015106201 0.2208629995584488 -0.639153003692627 -0.7366840243339539
          -0.052317000925540924 -0.6626610159873962 -0.7470899820327759 0.4903259873390198 -0.4938870072364807 -0.7180929780006409
          -0.766867995262146 0.08084499835968018 0.636693000793457 -0.9131100177764893 0.10848599672317505 0.3930160105228424
          -0.9639909863471985 0.21881400048732758 0.1511330008506775 -0.959945023059845 0.2535339891910553 -0.119268998503685
          -0.883135974407196 0.1448110044002533 -0.4462060034275055 -0.9457299709320068 0.2752450108528137 -0.17272600531578064
          -0.5522109866142273 -0.06019899994134903 -0.8315280079841614 -0.5720469951629639 -0.16241300106048584 -0.8039799928665161
          -0.2304989993572235 -0.4373930096626282 -0.8692280054092407 -0.0022499999031424522 -0.37308400869369507 -0.9277949929237366
          -0.43784600496292114 -0.3414900004863739 -0.8316699862480164 -0.43513599038124084 -0.18535900115966797 -0.8810780048370361
          -0.9637489914894104 0.17442700266838074 -0.20190000534057617 -0.78370201587677 0.016433000564575195 -0.6209189891815186
          -0.8395050168037415 0.10216599702835083 -0.5336610078811646 -0.8996899724006653 0.17128799855709076 -0.4015209972858429
          -0.9417499899864197 0.1764329969882965 -0.28631898760795593 -0.7110509872436523 0.01996699906885624 -0.7028570175170898