<?xml version="1.0"?>
<VTKFile type="PolyData" version="0.1" byte_order="LittleEndian" header_type="UInt32" compressor="vtkZLibDataCompressor">
  <PolyData>
    <Piece NumberOfPoints="65" NumberOfVerts="0" NumberOfLines="0" NumberOfStrips="0" NumberOfPolys="126">
      <PointData Normals="Normals">
        <DataArray type="Float32" Name="Normals" NumberOfComponents="3" format="ascii" RangeMin="0.9999993643626803" RangeMax="1.0000006826338483">
          0.12531299889087677 0.9708349704742432 0.2043910026550293 -0.4158860146999359 0.8543220162391663 -0.3117240071296692
          -0.384101003408432 0.7996619939804077 0.4615260064601898 0.30085399746894836 0.9536020159721375 0.01141900010406971
          0.34898701310157776 0.7623170018196106 0.5450509786605835 0.10686100274324417 0.41572898626327515 0.9031890034675598
          0.0661889985203743 0.971917986869812 -0.22582000494003296 -0.7988619804382324 0.6013219952583313 -0.015224000439047813
          -0.027329999953508377 0.6807640194892883 -0.7319920063018799 -0.05909999832510948 0.8976539969444275 -0.43672099709510803
          -0.4393860101699829 0.6395419836044312 -0.6308130025863647 -0.7462130188941956 0.5092610120773315 -0.4287410080432892
          -0.2345609962940216 0.3821350038051605 0.8938419818878174 0.20106400549411774 0.9778149724006653 -0.05874300003051758
          0.05869999900460243 0.3553380072116852 0.9328929781913757 0.3768109977245331 0.9198030233383179 0.10943499952554703
          0.25776100158691406 0.7524960041046143 0.6060600280761719 -0.6498119831085205 -0.09034900367259979 0.7547060251235962
          -0.970130980014801 0.193340003490448 -0.1465120017528534 -0.24173200130462646 0.3464379906654358 -0.906391978263855
          0.20122100412845612 0.5966590046882629 -0.7768579721450806 0.3019700050354004 0.3403109908103943 -0.8905069828033447
          0.16007000207901 0.8399220108985901 -0.518563985824585 -0.6791120171546936 0.04157999902963638 -0.7328559756278992
          -0.9026790261268616 0.09131500124931335 -0.4205150008201599 0.007841000333428383 -0.2441049963235855 0.9697170257568359
          0.021894000470638275 0.069582000374794 0.9973359704017639 0.2024500072002411 -0.023893000558018684 0.979000985622406
          0.1308860033750534 0.3774360120296478 0.9167389869689941 0.3041349947452545 0.9205700159072876 -0.24505800008773804
          0.3245120048522949 0.9439129829406738 0.06099500134587288 0.6191250085830688 0.590499997138977 0.5176820158958435
          -0.35461801290512085 -0.7540839910507202 0.5528140068054199 -0.03368400037288666 -0.6555529832839966 0.754397988319397
          -0.7352139949798584 -0.6777949929237366 0.007356999907642603 0.011540000326931477 -0.4761520028114319 -0.8792880177497864
          0.23765699565410614 -0.18883900344371796 -0.9528160095214844 0.3193179965019226 0.29536300897598267 -0.9004420042037964
          0.1624079942703247 0.5773029923439026 -0.800216019153595 0.484358012676239 -0.010218000039458275 -0.874809980392456
          0.5205199718475342 -0.37168198823928833 -0.7687069773674011 0.5485889911651611 -0.027486000210046768 -0.835640013217926
          0.23062600195407867 0.833541989326477 -0.5020149946212769 -0.42179301381111145 -0.8214300274848938 -0.3838520050048828
          -0.2104640007019043 -0.6590690016746521 -0.7220339775085449 -0.17857900261878967 -0.5505200028419495 0.8154990077018738
          0.10919000208377838 -0.34879299998283386 0.9308170080184937 0.6120390295982361 -0.16061000525951385 0.7743470072746277
          0.5343859791755676 -0.0691630020737648 0.8424059748649597 0.8277069926261902 0.523360013961792 -0.2024729996919632
          0.8527519702911377 -0.22117899358272552 0.4731749892234802 -0.08805400133132935 -0.8901450037956238 0.44708898663520813
          0.21456299722194672 -0.9709500074386597 0.10592000186443329 0.4028030037879944 -0.7645890116691589 -0.5031440258026123
          0.3100529909133911 -0.891156017780304 -0.3312219977378845 0.54721599817276 0.20008200407028198 -0.8127250075340271
          0.48124998807907104 -0.4541949927806854 -0.7497360110282898 0.8198729753494263 -0.32606399059295654 -0.4706279933452606
          0.33948901295661926 -0.8418650031089783 -0.4195359945297241 0.3366830050945282 -0.7339980006217957 0.5898240208625793
          0.7278239727020264 -0.5796499848365784 0.36643901467323303 0.9439970254898071 -0.22717900574207306 0.2392899990081787
          0.13686299324035645 -0.987339973449707 -0.08017999678850174 0.31713899970054626 -0.7867479920387268 -0.5295770168304443
          0.6446549892425537 -0.7381410002708435 -0.19891899824142456
          <InformationKey name="L2_NORM_RANGE" location="vtkDataArray" length="2">
            <Value index="0">
              0.99999936436
            </Value>
            <Value index="1">
              1.0000006826
            </Value>
          </InformationKey>
        </DataArray>
      </PointData>
      <CellData>
      </CellData>
      <Points>
        <DataArray type="Float32" Name="Points" NumberOfComponents="3" format="ascii" RangeMin="0.0215392481761259" RangeMax="0.03578540001216626">
          -0.005640000104904175 -0.017322000116109848 0.013969000428915024 -0.009151999838650227 -0.01857900060713291 0.011381000280380249
          -0.008341999724507332 -0.01818300038576126 0.014596999622881413 -0.004191000014543533 -0.018031999468803406 0.013093000277876854
          -0.0013620000099763274 -0.019175000488758087 0.013395999558269978 -0.007000999990850687 -0.018644999712705612 0.01496300008147955
          -0.0050050001591444016 -0.01788800023496151 0.012335999868810177 -0.012865999713540077 -0.021554000675678253 0.01278700027614832
          -0.007563000079244375 -0.020459000021219254 0.007416999898850918 -0.007019999902695417 -0.018928999081254005 0.009347000159323215
          -0.010092999786138535 -0.022502999752759933 0.006132000125944614 -0.011256000027060509 -0.023327000439167023 0.006808999925851822
          -0.012423999607563019 -0.0226259995251894 0.016287999227643013 -0.0029060000088065863 -0.018124999478459358 0.011901999823749065
          -0.003984999842941761 -0.022220000624656677 0.015604999847710133 -0.0011149999918416142 -0.018735000863671303 0.011971999891102314
          -0.000022000000171829015 -0.020572999492287636 0.01425199955701828 -0.013952000066637993 -0.025191999971866608 0.01628899946808815
          -0.015116999857127666 -0.02812499925494194 0.009670999832451344 -0.011296999640762806 -0.026951000094413757 0.0037430000957101583
          -0.004253999795764685 -0.02000799961388111 0.008510000072419643 -0.00394099997356534 -0.02395699918270111 0.005820999853312969
          -0.002581000095233321 -0.01880599930882454 0.010178999975323677 -0.012474000453948975 -0.028571000322699547 0.004127999767661095
          -0.014417000114917755 -0.028937000781297684 0.007007999811321497 -0.00849399995058775 -0.023871999233961105 0.01629900000989437
          -0.005123000126332045 -0.0236859992146492 0.016152000054717064 -0.0012240000069141388 -0.02507600001990795 0.01596900075674057
          -0.0006699999794363976 -0.02259800024330616 0.016138000413775444 -0.0009749999735504389 -0.01885100081562996 0.010677999816834927
          0.00006399999983841553 -0.0192709993571043 0.011494000442326069 0.0031240000389516354 -0.02004699967801571 0.012582999654114246
          -0.015018000267446041 -0.029889000579714775 0.011884000152349472 -0.009015999734401703 -0.025609999895095825 0.015159999951720238
          -0.014657000079751015 -0.03139900043606758 0.008937000297009945 -0.010598000138998032 -0.029688000679016113 0.0035929998848587275
          -0.008554999716579914 -0.02875800058245659 0.003450999967753887 -0.0005430000019259751 -0.023222999647259712 0.007837999612092972
          0.0003929999948013574 -0.020715000107884407 0.009053999558091164 0.0004349999944679439 -0.025272000581026077 0.008174999617040157
          -0.0051449998281896114 -0.026982000097632408 0.004534999839961529 -0.0021200000774115324 -0.025546999648213387 0.006657000165432692
          0.00016199999663513154 -0.019605999812483788 0.010178999975323677 -0.013585999608039856 -0.03169099986553192 0.006527000106871128
          -0.012060999870300293 -0.030866000801324844 0.004507000092417002 -0.0050929998978972435 -0.026480000466108322 0.015521000139415264
          -0.002013999968767166 -0.02675200067460537 0.016318999230861664 0.00025099999038502574 -0.026604000478982925 0.014826999977231026
          0.0011879999656230211 -0.023096000775694847 0.015731999650597572 0.003037000074982643 -0.020042000338435173 0.009983000345528126
          0.0016870000399649143 -0.02517399936914444 0.01423100009560585 -0.005381000228226185 -0.02775299921631813 0.013415999710559845
          -0.004604000132530928 -0.028867999091744423 0.008963000029325485 -0.00949500035494566 -0.029858000576496124 0.004317999817430973
          -0.010577999986708164 -0.03082999959588051 0.005160000175237656 0.003134000115096569 -0.020913999527692795 0.00947600044310093
          -0.002701000077649951 -0.027031999081373215 0.006591999903321266 0.0026680000592023134 -0.02672800049185753 0.009571000002324581
          -0.003522000042721629 -0.02811799943447113 0.0075170001946389675 0.0003110000106971711 -0.028087999671697617 0.014933999627828598
          0.001560000004246831 -0.028111999854445457 0.012978999875485897 0.0025339999701827765 -0.02638399973511696 0.012281999923288822
          -0.0014459999511018395 -0.02873300015926361 0.010161999613046646 -0.000805000017862767 -0.028193999081850052 0.008836000226438046
          0.0023769999388605356 -0.027334000915288925 0.009885000064969063
          <InformationKey name="L2_NORM_RANGE" location="vtkDataArray" length="2">
            <Value index="0">
              0.021539248176
            </Value>
            <Value index="1">
              0.035785400012
            </Value>
          </InformationKey>
        </DataArray>
      </Points>
      <Verts>
        <DataArray type="Int64" Name="connectivity" format="ascii" RangeMin="1e+299" RangeMax="-1e+299">
        </DataArray>
        <DataArray type="Int64" Name="offsets" format="ascii" RangeMin="1e+299" RangeMax="-1e+299">
        </DataArray>
      </Verts>
      <Lines>
        <DataArray type="Int64" Name="connectivity" format="ascii" RangeMin="1e+299" RangeMax="-1e+299">
        </DataArray>
        <DataArray type="Int64" Name="offsets" format="ascii" RangeMin="1e+299" RangeMax="-1e+299">
        </DataArray>
      </Lines>
      <Strips>
        <DataArray type="Int64" Name="connectivity" format="ascii" RangeMin="1e+299" RangeMax="-1e+299">
        </DataArray>
        <DataArray type="Int64" Name="offsets" format="ascii" RangeMin="1e+299" RangeMax="-1e+299">
        </DataArray>
      </Strips>
      <Polys>
        <DataArray type="Int32" Name="connectivity" format="ascii" RangeMin="0" RangeMax="64">
          0 1 2 3 0 4
          5 0 2 0 6 1
          5 4 0 6 0 3
          7 2 1 8 1 9
          1 8 10 1 10 11
          7 1 11 9 1 6
          2 12 5 7 12 2
          4 13 3 13 6 3
          4 5 14 4 15 13
          16 15 4 14 16 4
          14 5 12 13 9 6
          17 7 18 12 7 17
          7 11 18 19 10 8
          8 20 21 19 8 21
          9 22 8 22 20 8
          13 22 9 19 11 10
          23 11 19 11 24 18
          24 11 23 12 17 25
          12 25 26 14 12 26
          22 13 15 26 27 14
          27 28 14 14 28 16
          15 29 22 29 15 30
          16 30 15 16 28 31
          31 30 16 17 18 32
          33 17 32 33 25 17
          18 34 32 24 34 18
          35 19 36 23 19 35
          19 21 36 37 21 20
          38 20 22 20 38 37
          39 21 37 21 40 36
          41 40 21 41 21 39
          42 22 29 42 38 22
          43 23 44 23 43 24
          44 23 35 24 43 34
          25 33 45 45 26 25
          45 46 26 46 27 26
          27 47 48 27 46 47
          28 27 48 48 31 28
          29 30 42 31 49 30
          49 42 30 50 49 31
          31 48 50 33 32 51
          32 34 52 52 51 32
          51 45 33 43 52 34
          35 36 53 54 44 35
          54 35 53 36 40 53
          55 37 38 55 39 37
          42 49 38 49 55 38
          56 41 39 55 57 39
          57 56 39 58 53 40
          40 41 56 40 56 58
          44 54 43 54 52 43
          51 46 45 59 47 46
          51 59 46 60 47 59
          47 60 50 50 48 47
          49 61 57 61 49 50
          49 57 55 61 50 60
          51 52 62 62 59 51
          58 52 54 62 52 58
          58 54 53 58 56 63
          56 57 63 64 57 61
          57 64 63 62 58 63
          62 60 59 64 61 60
          60 62 64 63 64 62
        </DataArray>
        <DataArray type="Int32" Name="offsets" format="ascii" RangeMin="3" RangeMax="378">
          3 6 9 12 15 18
          21 24 27 30 33 36
          39 42 45 48 51 54
          57 60 63 66 69 72
          75 78 81 84 87 90
          93 96 99 102 105 108
          111 114 117 120 123 126
          129 132 135 138 141 144
          147 150 153 156 159 162
          165 168 171 174 177 180
          183 186 189 192 195 198
          201 204 207 210 213 216
          219 222 225 228 231 234
          237 240 243 246 249 252
          255 258 261 264 267 270
          273 276 279 282 285 288
          291 294 297 300 303 306
          309 312 315 318 321 324
          327 330 333 336 339 342
          345 348 351 354 357 360
          363 366 369 372 375 378
        </DataArray>
      </Polys>
    </Piece>
  </PolyData>
</VTKFile>
