<?xml version="1.0"?>
<VTKFile type="PolyData" version="0.1" byte_order="LittleEndian" header_type="UInt32" compressor="vtkZLibDataCompressor">
  <PolyData>
    <Piece NumberOfPoints="1434" NumberOfVerts="0" NumberOfLines="0" NumberOfStrips="0" NumberOfPolys="2864">
      <PointData Normals="Normals">
        <DataArray type="Float32" Name="Normals" NumberOfComponents="3" format="ascii" RangeMin="0.9999992065456539" RangeMax="1.0000007571364251">
          0.9790160059928894 -0.12447000294923782 0.16134999692440033 0.9302870035171509 0.1125900000333786 0.34912601113319397
          0.9601839780807495 -0.08876799792051315 0.26489099860191345 0.9663649797439575 -0.24717000126838684 0.07102800160646439
          0.974947988986969 0.011118999682366848 0.22215400636196136 0.9808480143547058 -0.1926490068435669 -0.028700999915599823
          0.9588750004768372 -0.27780500054359436 0.05816200003027916 0.9285309910774231 -0.34261301159858704 -0.1429930031299591
          0.9085180163383484 0.09428799897432327 0.40706801414489746 0.9165239930152893 0.18908199667930603 0.3524639904499054
          0.8211989998817444 0.2679060101509094 0.5038440227508545 0.9546840190887451 -0.27618300914764404 0.11090900003910065
          0.8949940204620361 -0.1474359929561615 0.42100900411605835 0.8900359869003296 -0.34628400206565857 0.2965179979801178
          0.8945850133895874 -0.43874800205230713 -0.08495999872684479 0.9001389741897583 -0.43308600783348083 -0.046751998364925385
          0.8813419938087463 -0.46868300437927246 -0.059774000197649 0.9883009791374207 0.02011599950492382 0.15118299424648285
          0.9602659940719604 -0.21513399481773376 -0.1777839958667755 0.9990379810333252 -0.043379999697208405 0.006397000048309565
          0.8792639970779419 -0.43170401453971863 -0.20131200551986694 0.8798400163650513 -0.4242349863052368 -0.21425700187683105
          0.7741119861602783 -0.5800269842147827 -0.2536129951477051 0.8620889782905579 0.05283400043845177 0.5039950013160706
          0.8261709809303284 0.3079429864883423 0.4718190133571625 0.9016640186309814 0.2520639896392822 0.3513779938220978
          0.9670259952545166 0.165352001786232 0.19370000064373016 0.7764310240745544 0.2148440033197403 0.5924500226974487
          0.6912890076637268 0.38078099489212036 0.6141049861907959 0.6978930234909058 0.3523949980735779 0.6235089898109436
          0.8222150206565857 -0.5620579719543457 0.08973900228738785 0.849852979183197 -0.20782199501991272 0.4843139946460724
          0.8249250054359436 -0.42588600516319275 0.371643990278244 0.7265409827232361 -0.6597790122032166 0.19190900027751923
          0.7417219877243042 -0.6690829992294312 -0.046661000698804855 0.7643769979476929 -0.623898983001709 -0.1627199947834015
          0.7128009796142578 -0.6190840005874634 -0.3296220004558563 0.9960399866104126 0.08870600163936615 0.005963999778032303
          0.8510990142822266 -0.49463000893592834 -0.1759900003671646 0.9778839945793152 -0.06399799883365631 -0.1991180032491684
          0.9479629993438721 -0.22842299938201904 -0.22178399562835693 0.6849030256271362 -0.6865959763526917 -0.24391500651836395
          0.6724470257759094 -0.7046329975128174 -0.22651000320911407 0.850829005241394 -0.008829000405967236 0.5253679752349854
          0.8538169860839844 0.3476189970970154 0.3875020146369934 0.7476230263710022 0.44804999232292175 0.4902159869670868
          0.9434769749641418 0.23995600640773773 0.22863100469112396 0.719111979007721 0.10212799906730652 0.6873480081558228
          0.6976770162582397 0.2927339971065521 0.653876006603241 0.7902920246124268 0.01408699993044138 0.6125680208206177
          0.8380200266838074 -0.060676999390125275 0.5422549843788147 0.5629429817199707 0.5078150033950806 0.6520879864692688
          0.5844470262527466 0.556315004825592 0.5907080173492432 0.6309080123901367 0.3198080062866211 0.7068790197372437
          0.704410970211029 0.3401930034160614 0.6229559779167175 0.6198030114173889 -0.7844070196151733 0.023453999310731888
          0.8779640197753906 -0.23137399554252625 0.41909998655319214 0.7693340182304382 -0.4910440146923065 0.4086590111255646
          0.6340090036392212 -0.7377920150756836 0.23172299563884735 0.455392986536026 -0.889460027217865 0.03842899948358536
          0.5564550161361694 -0.807640016078949 -0.19512900710105896 0.6546519994735718 -0.7035980224609375 -0.2763710021972656
          0.9756219983100891 0.1952899992465973 0.10011900216341019 0.9987580180168152 0.049800001084804535 -0.0016459999606013298
          0.7366729974746704 -0.6418439745903015 -0.21295399963855743 0.8915550112724304 -0.39783400297164917 -0.2164669930934906
          0.9936950206756592 0.07607299834489822 -0.0823649987578392 0.9620770215988159 -0.01913199946284294 -0.27210500836372375
          0.929364025592804 -0.15659500658512115 -0.334306001663208 0.9010009765625 -0.0988830029964447 -0.4223969876766205
          0.6230390071868896 -0.7521299719810486 -0.21476499736309052 0.6196399927139282 -0.7599890232086182 -0.1961199939250946
          0.5026429891586304 -0.8177409768104553 -0.28044599294662476 0.6073139905929565 -0.7553039789199829 -0.24634400010108948
          0.9127619862556458 0.319009006023407 0.25514599680900574 0.7887849807739258 0.4108020067214966 0.45723098516464233
          0.8348280191421509 0.39065900444984436 0.3878760039806366 0.7457180023193359 0.447284996509552 0.493802011013031
          0.6315450072288513 0.5820980072021484 0.5121650099754333 0.6784819960594177 0.26581698656082153 0.6848390102386475
          0.7153059840202332 -0.1360590010881424 0.6854379773139954 0.6575679779052734 -0.2254440039396286 0.7188739776611328
          0.6545420289039612 -0.05056999996304512 0.7543320059776306 0.5935779809951782 0.09182900190353394 0.7995200157165527
          0.7153940200805664 -0.267100989818573 0.6456530094146729 0.8394780158996582 -0.350398987531662 0.4153270125389099
          0.7244510054588318 -0.4418239891529083 0.5291150212287903 0.4721989929676056 0.2917320132255554 0.8318179845809937
          0.4568139910697937 0.4631580114364624 0.7594770193099976 0.483258992433548 0.6166449785232544 0.6214579939842224
          0.48774001002311707 0.6613489985466003 0.5698480010032654 0.5089420080184937 0.6409639716148376 0.5745810270309448
          0.5138400197029114 0.18437999486923218 0.8378379940986633 0.5315669775009155 0.22579799592494965 0.8163650035858154
          0.8215839862823486 -0.41213300824165344 0.3938849866390228 0.7105259895324707 -0.5211120247840881 0.4728569984436035
          0.6115850210189819 -0.676705002784729 0.40992000699043274 0.5202339887619019 -0.8113409876823425 0.2666119933128357
          0.4087969958782196 -0.9087700247764587 0.08379899710416794 0.2142540067434311 -0.9746950268745422 0.06375599652528763
          0.3965350091457367 -0.9154829978942871 0.0681919977068901 0.5744730234146118 -0.8089529871940613 -0.1248060017824173
          0.6115319728851318 -0.7871969938278198 -0.07968900352716446 0.904977023601532 0.33867600560188293 0.2575159966945648
          0.9746729731559753 0.22336800396442413 0.010948999784886837 0.7548959851264954 -0.5988889932632446 -0.2673250138759613
          0.6560500264167786 -0.7335410118103027 -0.17752699553966522 0.6460649967193604 -0.7287589907646179 -0.22696000337600708
          0.8409850001335144 -0.40705299377441406 -0.3564450144767761 0.9029139876365662 -0.21262599527835846 -0.3735469877719879
          0.9689130187034607 0.07545100152492523 -0.23561400175094604 0.9044659733772278 -0.03951200097799301 -0.42471200227737427
          0.90864098072052 -0.10300599783658981 -0.4046750068664551 0.8694760203361511 -0.06527700275182724 -0.48964399099349976
          0.47831401228904724 -0.8695849776268005 -0.12263000011444092 0.37374401092529297 -0.8897600173950195 -0.2619970142841339
          0.5039179921150208 -0.8304629921913147 -0.23747999966144562 0.6100019812583923 -0.7810500264167786 -0.13363699615001678
          0.582148015499115 -0.8003889918327332 -0.1431100070476532 0.8352699875831604 0.38334301114082336 0.3941729962825775
          0.7273619771003723 0.47344499826431274 0.49678298830986023 0.5397629737854004 0.6530759930610657 0.5311750173568726
          0.5007479786872864 0.704410970211029 0.503046989440918 0.5083550214767456 0.64901202917099 0.5660020112991333
          0.5913379788398743 -0.4697929918766022 0.6554489731788635 0.5364390015602112 -0.3368290066719055 0.773809015750885
          0.5370180010795593 -0.5338029861450195 0.6531969904899597 0.5164470076560974 -0.17564800381660461 0.8381109833717346
          0.4291369915008545 0.047981999814510345 0.901964008808136 0.4122929871082306 -0.04532700031995773 0.9099230170249939
          0.464601993560791 -0.1247669979929924 0.8766859769821167 0.5875359773635864 -0.562608003616333 0.5816119909286499
          0.5081329941749573 -0.7158690094947815 0.47888800501823425 0.39589399099349976 0.15179599821567535 0.905663013458252
          0.34743499755859375 0.30320799350738525 0.8873299956321716 0.40250998735427856 0.48331698775291443 0.77742600440979
          0.5769129991531372 0.5224320292472839 0.6278830170631409 0.4548729956150055 0.5846229791641235 0.6717939972877502
          0.42485299706459045 0.6907879710197449 0.5850750207901001 0.5285220146179199 0.6464679837226868 0.5502210259437561
          0.39040300250053406 -0.8613380193710327 0.3250890076160431 0.23230500519275665 -0.9605439901351929 0.15293799340724945
          0.17972299456596375 -0.9717900156974792 0.15272000432014465 0.1891999989748001 -0.9721440076828003 0.13834600150585175
          0.3305949866771698 -0.9128180146217346 0.23973099887371063 0.47297999262809753 -0.8783929944038391 0.06866499781608582
          0.8440319895744324 0.4137530028820038 0.3412010073661804 0.9142159819602966 0.36743101477622986 0.17089299857616425
          0.9681090116500854 0.17046500742435455 -0.18359099328517914 0.7992770075798035 -0.38637199997901917 -0.46029698848724365
          0.7150819897651672 -0.579912006855011 -0.39033401012420654 0.7189239859580994 -0.5065460205078125 -0.47598201036453247
          0.6715400218963623 -0.6887779831886292 -0.2731649875640869 0.854649007320404 -0.15806999802589417 -0.49455899000167847
          0.9173200130462646 0.018837999552488327 -0.39770498871803284 0.9046019911766052 -0.08316700160503387 -0.41806501150131226
          0.2782689929008484 -0.9551069736480713 0.10167299956083298 0.30094099044799805 -0.9394569993019104 -0.16387300193309784
          0.2600820064544678 -0.9559760093688965 -0.1358949989080429 0.1710290014743805 -0.9498999714851379 -0.26160699129104614
          0.5651649832725525 -0.824720025062561 -0.02063699997961521 0.6626359820365906 -0.6910650134086609 -0.2886910140514374
          0.6633139848709106 -0.739795982837677 -0.11276999861001968 0.7304419875144958 0.5214899778366089 0.4410249888896942
          0.5431510210037231 0.6317449808120728 0.553068995475769 0.5736820101737976 0.5982490181922913 0.5594519972801208
          0.40470701456069946 0.7505630254745483 0.522367000579834 0.4468039870262146 -0.7138190269470215 0.5392850041389465
          0.4862009882926941 -0.6744130253791809 0.5556759834289551 0.3101089894771576 -0.48381200432777405 0.8183879852294922
          0.3702540099620819 -0.6528040170669556 0.660876989364624 0.31116700172424316 -0.34438401460647583 0.8857619762420654
          0.45524001121520996 -0.10546500235795975 0.8841009736061096 0.3289879858493805 -0.1733819991350174 0.9282810091972351
          0.290710985660553 -0.20058399438858032 0.9355499744415283 0.2031559944152832 -0.9354090094566345 0.2893739938735962
          0.46959200501441956 0.023354999721050262 0.8825749754905701 0.2918800115585327 0.11990000307559967 0.9489099979400635
          0.44196298718452454 0.15128199756145477 0.8841850161552429 0.3005569875240326 0.20287400484085083 0.9319369792938232
          0.31769898533821106 0.3372040092945099 0.8862059712409973 0.38010498881340027 0.4969469904899597 0.7801049947738647
          0.5443230271339417 0.4971869885921478 0.675661027431488 0.9667959809303284 0.1610639989376068 0.19840100407600403
          0.7847639918327332 0.36788100004196167 0.49880799651145935 0.33456501364707947 0.634555995464325 0.6967099905014038
          0.358581006526947 0.8123379945755005 0.4599199891090393 0.25953200459480286 0.7345070242881775 0.6270110011100769
          0.2711139917373657 0.8178150057792664 0.5076180100440979 0.6390600204467773 0.5250040292739868 0.5621140003204346
          0.48547598719596863 0.7239410281181335 0.490123987197876 0.25953400135040283 -0.9562749862670898 0.13482999801635742
          0.32214099168777466 -0.9049630165100098 0.27796900272369385 0.21929900348186493 -0.9630039930343628 0.1566219925880432
          0.3815769851207733 -0.8991379737854004 0.21435999870300293 0.5427179932594299 -0.8226450085639954 0.16944600641727448
          0.32631799578666687 -0.937699019908905 0.11931700259447098 0.37433698773384094 -0.8834409713745117 0.2817859947681427
          0.7834950089454651 0.5161200165748596 0.3460580110549927 0.9375770092010498 0.32361599802970886 -0.1273690015077591
          0.8860170245170593 0.46159300208091736 0.04366299882531166 0.8057399988174438 0.5502099990844727 0.2192070037126541
          0.9319490194320679 0.13056699931621552 -0.33826398849487305 0.7784810066223145 -0.15194900333881378 -0.6089990139007568
          0.7661880254745483 -0.3372519910335541 -0.5470079779624939 0.7104799747467041 -0.33618301153182983 -0.6182219982147217
          0.7299749851226807 -0.3287929892539978 -0.5991920232772827 0.7163630127906799 -0.17064300179481506 -0.6765390038490295
          0.7005360126495361 -0.4260610044002533 -0.5724689960479736 0.8655480146408081 -0.023395000025629997 -0.5002790093421936
          0.7797949910163879 -0.07350800186395645 -0.6217039823532104 0.39829298853874207 -0.8916119933128357 0.2153870016336441
          0.2740060091018677 -0.9609860181808472 0.037755999714136124 -0.0334010012447834 -0.9913550019264221 -0.12688800692558289
          0.08870600163936615 -0.9852460026741028 -0.14636099338531494 0.38561001420021057 -0.9210659861564636 -0.054249998182058334
          0.14940199255943298 -0.9871810078620911 0.0561549998819828 0.10127100348472595 -0.9938690066337585 0.04437100142240524
          -0.06103700026869774 -0.9922850131988525 -0.107914999127388 0.6243919730186462 -0.7810869812965393 0.006153999827802181
          0.4981609880924225 -0.8664180040359497 -0.03400000184774399 0.728393018245697 -0.5826810002326965 -0.3604530096054077
          0.7269129753112793 -0.4742400050163269 -0.49668198823928833 0.4917599856853485 -0.8627380132675171 -0.11770699918270111
          0.6164000034332275 -0.7670459747314453 -0.1780180037021637 0.6674799919128418 0.590474009513855 0.45366400480270386
          0.44200000166893005 0.7374899983406067 0.5106319785118103 0.5763350129127502 0.6658959984779358 0.4737299978733063
          0.5475689768791199 0.671858012676239 0.498773992061615 0.35923901200294495 0.8481900095939636 0.38925701379776
          0.21314899623394012 0.918366014957428 0.33342400193214417 0.1938520073890686 0.9331629872322083 0.3027009963989258
          0.33023399114608765 0.7830640077590942 0.5270259976387024 0.1628039926290512 0.8985720276832581 0.4075089991092682
          0.34758201241493225 -0.8217099905014038 0.4516409933567047 0.0757799968123436 -0.6598700284957886 0.7475489974021912
          0.15508200228214264 -0.7186040282249451 0.6779069900512695 0.1922149956226349 -0.8131459951400757 0.5494049787521362
          0.330936998128891 -0.4143329858779907 0.8478260040283203 0.49699801206588745 -0.3029339909553528 0.813156008720398
          0.43857601284980774 -0.404229998588562 0.8026520013809204 0.47016099095344543 -0.1828480064868927 0.863431990146637
          0.4774560034275055 -0.25692999362945557 0.8402519822120667 0.3558270037174225 -0.9018139839172363 0.2451930046081543
          0.1015779972076416 -0.9829859733581543 0.1530340015888214 0.49605101346969604 -0.26265400648117065 0.8276150226593018
          0.4986700117588043 -0.006231000181287527 0.8667700290679932 0.4093640148639679 0.02041799947619438 0.9121419787406921
          0.11757399886846542 -0.031557001173496246 0.992563009262085 0.0658779963850975 -0.1999640017747879 0.9775859713554382
          0.28131499886512756 -0.1064160019159317 0.9536970257759094 0.4364509880542755 0.09264200180768967 0.8949459791183472
          0.4514319896697998 -0.038759998977184296 0.8914629817008972 0.24750199913978577 0.2619909942150116 0.9327939748764038
          0.17742200195789337 0.1663459986448288 0.9699739813804626 0.1570259928703308 0.061576999723911285 0.9856730103492737
          0.33426299691200256 0.4704819917678833 0.816648006439209 0.27180901169776917 0.33661600947380066 0.9015589952468872
          0.2626250088214874 0.30721500515937805 0.914683997631073 0.27379798889160156 0.39347198605537415 0.8776190280914307
          0.8934640288352966 0.27806198596954346 0.3527100086212158 0.3252530097961426 0.5382450222969055 0.7774980068206787
          0.2751840054988861 0.5643190145492554 0.7783430218696594 0.506367027759552 0.49842900037765503 0.7036769986152649
          0.17051400244235992 0.64205402135849 0.7474570274353027 0.156823992729187 0.9195250272750854 0.36038899421691895
          0.15949299931526184 0.891506016254425 0.424003005027771 0.1465959995985031 0.7881829738616943 0.5977259874343872
          0.5882290005683899 -0.7670940160751343 0.2560339868068695 0.6204079985618591 -0.774055004119873 0.12622399628162384
          0.17246399819850922 -0.9382179975509644 0.3000060021877289 0.6777629852294922 -0.7095530033111572 0.19279900193214417
          0.3898720145225525 -0.8187649846076965 0.4214540123939514 0.649940013885498 -0.7098240256309509 0.2715289890766144
          0.7200689911842346 -0.6757959723472595 0.15748299658298492 0.8529829978942871 -0.5168420076370239 0.0727590024471283
          0.6936830282211304 0.63639897108078 0.3373419940471649 0.8737760186195374 0.23340700566768646 -0.4266580045223236
          0.915930986404419 0.36083298921585083 -0.17569600045681 0.8803960084915161 0.469543993473053 -0.06656599789857864
          0.7046890258789062 0.65106600522995 0.2820039987564087 0.8088449835777283 0.5723130106925964 -0.13501200079917908
          0.7312480211257935 0.6647769808769226 0.1528010070323944 0.8506029844284058 0.0542140007019043 -0.523006021976471
          0.9026190042495728 0.02069699950516224 -0.4299429953098297 0.6495000123977661 -0.07217399775981903 -0.756928026676178
          0.7004579901695251 -0.14793600142002106 -0.6981930136680603 0.672091007232666 -0.09297399967908859 -0.734607994556427
          0.7172769904136658 -0.17189300060272217 -0.6752529740333557 0.6875860095024109 -0.004354999866336584 -0.7260900139808655
          0.6298249959945679 -0.12917600572109222 -0.7659199833869934 0.7459279894828796 -0.07863999903202057 -0.6613680124282837
          0.8040770292282104 0.033883001655340195 -0.5935590267181396 0.8187839984893799 0.008956000208854675 -0.5740309953689575
          0.8249719738960266 0.008337000384926796 -0.5651119947433472 0.435247004032135 -0.8977959752082825 -0.06724800169467926
          0.2620700001716614 -0.9418870210647583 -0.21016399562358856 -0.07088299840688705 -0.9845089912414551 -0.16037000715732574
          -0.36955198645591736 -0.9238709807395935 -0.0994660034775734 -0.3701019883155823 -0.9249699711799622 -0.08634400367736816
          0.38088199496269226 -0.9238680005073547 -0.03737400099635124 -0.0023930000606924295 -0.9973070025444031 0.07330500334501266
          -0.09839999675750732 -0.9874100089073181 0.12384899705648422 -0.0194690003991127 -0.9774810075759888 0.2101230025291443
          0.26325100660324097 -0.9588710069656372 0.10614100098609924 0.3945789933204651 -0.9187470078468323 0.014534000307321548
          -0.22709299623966217 -0.9697669744491577 0.08933000266551971 0.7802469730377197 -0.34901800751686096 -0.5190380215644836
          0.828220009803772 -0.3172610104084015 -0.4619489908218384 0.7795950174331665 -0.5292220115661621 -0.3348970115184784
          0.4572179913520813 -0.8874260187149048 -0.05854500085115433 0.6093199849128723 -0.7547730207443237 -0.2429960072040558
          0.7444769740104675 -0.5518249869346619 -0.3758229911327362 0.555840015411377 0.7257530093193054 0.4053710103034973
          0.059762999415397644 0.9653239846229553 0.2541230022907257 0.07869400084018707 0.9435709714889526 0.32168498635292053
          0.474045991897583 0.7814980149269104 0.4056369960308075 0.18110600113868713 0.8821690082550049 0.43471699953079224
          0.09500999748706818 -0.928167998790741 0.35982900857925415 -0.05280499905347824 -0.8436009883880615 0.5343679785728455
          0.2870599925518036 -0.5640140175819397 0.7742639780044556 0.19207200407981873 -0.7696359753608704 0.608909010887146
          -0.005537000019103289 -0.89683598279953 0.44232800602912903 0.364082008600235 -0.5824040174484253 0.7268080115318298
          0.29188698530197144 -0.5296760201454163 0.7963950037956238 0.08228600025177002 -0.7765309810638428 0.6246820092201233
          0.37347400188446045 -0.4203450083732605 0.8269379734992981 0.4126580059528351 -0.48520800471305847 0.7709000110626221
          0.8397120237350464 -0.5259469747543335 0.1351419985294342 0.4946190118789673 -0.3192119896411896 0.8083660006523132
          0.3579759895801544 -0.650085985660553 0.6702550053596497 0.3556230068206787 -0.01911499910056591 0.9344339966773987
          0.2871539890766144 -0.30741798877716064 0.9072139859199524 0.29519400000572205 -0.2158699929714203 0.9307309985160828
          -0.10050799697637558 -0.3238790035247803 0.9407449960708618 -0.08805300295352936 -0.21104300022125244 0.9735029935836792
          -0.17736700177192688 -0.5309209823608398 0.828652024269104 0.09473100304603577 -0.39331701397895813 0.9145100116729736
          0.32418298721313477 -0.09797099977731705 0.9409080147743225 0.3431510031223297 -0.44767001271247864 0.8257349729537964
          0.12059099972248077 0.11375699937343597 0.9861630201339722 -0.021184999495744705 -0.016340000554919243 0.999642014503479
          0.21336300671100616 0.5057860016822815 0.8358569741249084 0.14750699698925018 0.31066399812698364 0.9390050172805786
          0.19460199773311615 0.41208600997924805 0.8901209831237793 0.14378400146961212 0.16896599531173706 0.9750779867172241
          0.07295399904251099 0.5393850207328796 0.8388929963111877 -0.0042929998598992825 0.6510080099105835 0.7590579986572266
          0.03149000182747841 0.8345010280609131 0.5501059889793396 0.1659419983625412 0.8160859942436218 0.5535950064659119
          0.048948001116514206 0.9481449723243713 0.3140470087528229 0.09273699671030045 0.7326250076293945 0.6742849946022034
          0.6315069794654846 -0.7746670246124268 -0.03302599862217903 0.5479940176010132 -0.8264250159263611 -0.1293250024318695
          0.02229500003159046 -0.8926529884338379 0.45019298791885376 0.21819700300693512 -0.7867199778556824 0.5774620175361633
          0.10682299733161926 -0.8961279988288879 0.43074798583984375 0.45984500646591187 -0.7302899956703186 0.50519198179245
          0.5502229928970337 -0.7350980043411255 0.39608699083328247 0.6056159734725952 -0.7672520279884338 0.2110770046710968
          0.4644629955291748 -0.8848389983177185 0.03652599826455116 0.5615190267562866 0.7773749828338623 0.28352001309394836
          0.592752993106842 0.7531229853630066 0.28539401292800903 0.8882089853286743 0.33396199345588684 -0.3155229985713959
          0.9166579842567444 0.11491099745035172 -0.3827970027923584 0.6441630125045776 0.7648789882659912 -0.0038330000825226307
          0.7740799784660339 0.4890750050544739 -0.4020029902458191 0.6811130046844482 0.6558120250701904 -0.3255699872970581
          0.643680989742279 -0.15145599842071533 -0.7501580119132996 0.6262570023536682 -0.01623000018298626 -0.7794479727745056
          0.6098030209541321 -0.013396999798715115 -0.7924399971961975 0.680495023727417 0.029784999787807465 -0.7321479916572571
          0.7027779817581177 0.04892899841070175 -0.7097240090370178 0.7486690282821655 -0.15260499715805054 -0.6451399922370911
          0.6499710083007812 0.019657999277114868 -0.7597050070762634 0.6350460052490234 -0.09935099631547928 -0.7660589814186096
          0.6480649709701538 -0.17743000388145447 -0.7406280040740967 0.6330450177192688 -0.22372199594974518 -0.7410820126533508
          0.7399960160255432 0.010673999786376953 -0.6725260019302368 0.7051050066947937 -0.07618500292301178 -0.7049990296363831
          0.7735679745674133 -0.023562999442219734 -0.6332749724388123 0.8115230202674866 0.0932139977812767 -0.5768380165100098
          0.30236199498176575 -0.9419999718666077 -0.14564700424671173 0.06696700304746628 -0.9961420297622681 -0.05671599879860878
          -0.24888299405574799 -0.9638820290565491 -0.09481099992990494 -0.4236859977245331 -0.9057580232620239 0.009623999707400799
          -0.48134198784828186 -0.8756620287895203 -0.03906400129199028 -0.37675899267196655 -0.9211350083351135 0.09779199957847595
          -0.46953800320625305 -0.8817430138587952 0.045423999428749084 -0.16787999868392944 -0.9715920090675354 0.16680799424648285
          -0.13061299920082092 -0.9713119864463806 0.1987289935350418 -0.05499500036239624 -0.9598720073699951 0.2749919891357422
          0.07566899806261063 -0.974353015422821 0.21192100644111633 0.40361499786376953 -0.8973039984703064 -0.1787160038948059
          0.3655889928340912 -0.9127320051193237 -0.1823890060186386 0.2690350115299225 -0.963129997253418 -0.001164000015705824
          -0.41662999987602234 -0.8814359903335571 0.222461998462677 -0.39113301038742065 -0.882748007774353 0.2603299915790558
          -0.25630098581314087 -0.9384300112724304 0.2316419929265976 0.8069679737091064 -0.14602099359035492 -0.5722590088844299
          0.811083972454071 -0.3105660080909729 -0.4956730008125305 0.81769198179245 -0.05845699831843376 -0.5726799964904785
          0.45794400572776794 -0.8540689945220947 -0.2466839998960495 0.6405590176582336 -0.5457000136375427 -0.5402730107307434
          0.5207099914550781 -0.7276819944381714 -0.446476012468338 0.7316880226135254 -0.3416300117969513 -0.5898489952087402
          0.0977649986743927 0.8844339847564697 0.4563089907169342 0.21275700628757477 0.9092659950256348 0.3577280044555664
          0.08625900000333786 0.8520839810371399 0.5162479877471924 0.2434300035238266 0.8797720074653625 0.4083409905433655
          0.3844839930534363 0.8621280193328857 0.3300110101699829 -0.11116799712181091 -0.9003340005874634 0.4207629859447479
          0.10021699965000153 -0.8672440052032471 0.48769399523735046 -0.053651999682188034 -0.9374319911003113 0.34400901198387146
          0.19820299744606018 -0.7468240261077881 0.6347990036010742 0.09115699678659439 -0.9030140042304993 0.41982799768447876
          0.30014801025390625 -0.679252028465271 0.6697229743003845 0.13893499970436096 -0.8733090162277222 0.46693599224090576
          0.14452600479125977 -0.8250589966773987 0.5462509989738464 0.25657200813293457 -0.5477120280265808 0.7963560223579407
          0.006182000041007996 -0.6498110294342041 0.7600709795951843 -0.2771790027618408 -0.4601080119609833 0.8434879779815674
          -0.07892400026321411 -0.09479299932718277 0.9923629760742188 -0.1909870058298111 -0.28450000286102295 0.9394590258598328
          -0.278670996427536 -0.44642001390457153 0.8503239750862122 -0.322627991437912 -0.662539005279541 0.6759840250015259
          -0.23688000440597534 -0.7691439986228943 0.5935540199279785 -0.054806001484394073 -0.00843099970370531 0.9984620213508606
          -0.04408799856901169 -0.0971670001745224 0.9942910075187683 -0.03550200164318085 0.46737799048423767 0.8833450078964233
          -0.009368999861180782 0.3929649889469147 0.9195050001144409 -0.157368004322052 0.23370499908924103 0.9594879746437073
          -0.07510299980640411 0.060398001223802567 0.9953449964523315 -0.23334799706935883 0.5270860195159912 0.8171470165252686
          -0.30532601475715637 0.6071580052375793 0.7335770130157471 -0.28622400760650635 0.7112389802932739 0.6420390009880066
          -0.25908899307250977 0.8309720158576965 0.4922980070114136 0.05104000121355057 0.9445809721946716 0.32428500056266785
          -0.15981699526309967 0.8988289833068848 0.4081229865550995 -0.022575000301003456 -0.8121730089187622 0.5829790234565735
          0.21396400034427643 -0.7096059918403625 0.6713259816169739 0.18994900584220886 -0.7786849737167358 0.5979710221290588
          0.17848999798297882 -0.7961739897727966 0.578141987323761 0.40213900804519653 -0.7580350041389465 0.5134860277175903
          0.4303149878978729 -0.855883002281189 0.28686898946762085 0.2981649935245514 -0.8436560034751892 0.4464769959449768
          0.315883994102478 -0.9408789873123169 0.1223289966583252 -0.013526000082492828 -0.9998970031738281 -0.004747999832034111
          0.49040600657463074 0.8662980198860168 0.09502699971199036 0.4003469944000244 0.8975350260734558 0.1848050057888031
          0.8316180109977722 0.33823201060295105 -0.4404659867286682 0.9739680290222168 0.1067809984087944 -0.19995799660682678
          0.7953969836235046 0.16023500263690948 -0.5845249891281128 0.9643430113792419 0.08868999779224396 -0.24935099482536316
          0.863381028175354 0.14315100014209747 -0.48381999135017395 0.5392630100250244 0.820455014705658 -0.18986299633979797
          0.8584750294685364 0.2944819927215576 -0.41988199949264526 0.6824899911880493 0.5864650011062622 -0.4361959993839264
          0.5433470010757446 0.7222790122032166 -0.42788800597190857 0.642611026763916 -0.16641899943351746 -0.7479010224342346
          0.6506230235099792 0.09909000247716904 -0.7529079914093018 0.7537329792976379 0.0429610013961792 -0.6557750105857849