<?xml version="1.0"?>
<VTKFile type="PolyData" version="0.1" byte_order="LittleEndian" header_type="UInt32" compressor="vtkZLibDataCompressor">
  <PolyData>
    <Piece NumberOfPoints="2270" NumberOfVerts="0" NumberOfLines="0" NumberOfStrips="0" NumberOfPolys="4536">
      <PointData Normals="Normals">
        <DataArray type="Float32" Name="Normals" NumberOfComponents="3" format="ascii" RangeMin="0.9999992909371428" RangeMax="1.0000008165253031">
          0.8978670239448547 -0.24086399376392365 0.36853599548339844 0.7852299809455872 -0.28833699226379395 0.5479739904403687
          0.6973289847373962 -0.34442800283432007 0.6285709738731384 0.7485330104827881 -0.3137210011482239 0.5841900110244751
          0.9141950011253357 -0.16539199650287628 0.3699899911880493 0.8976899981498718 -0.28790101408958435 0.33356600999832153
          0.9655240178108215 -0.21853899955749512 0.14143699407577515 0.9616960287094116 -0.1358720064163208 0.23807400465011597
          0.5559300184249878 -0.39942899346351624 0.728971004486084 0.7319729924201965 -0.2810389995574951 0.6206709742546082
          0.422122985124588 -0.4557400047779083 0.783653974533081 0.45582300424575806 -0.4331069886684418 0.7775890231132507
          0.6314870119094849 -0.45058199763298035 0.6310309767723083 0.8055070042610168 -0.35753199458122253 0.4725779891014099
          0.7161499857902527 -0.19827799499034882 0.669189989566803 0.896809995174408 -0.11790899932384491 0.42641499638557434
          0.9687470197677612 -0.0783730000257492 0.23534399271011353 0.9871540069580078 -0.10453300178050995 0.12083300203084946
          0.9850080013275146 -0.0702499970793724 0.15755799412727356 0.9241780042648315 -0.3346779942512512 0.18408000469207764
          0.9798129796981812 -0.19826099276542664 -0.02566399984061718 0.15693600475788116 -0.5502719879150391 0.8201040029525757
          0.4826900064945221 -0.3215729892253876 0.8146169781684875 0.32423698902130127 -0.4536600112915039 0.8300979733467102
          0.6342269778251648 -0.26653599739074707 0.7257509827613831 0.19811700284481049 -0.5154449939727783 0.8337060213088989
          0.1271200031042099 -0.557424008846283 0.820438027381897 0.2854759991168976 -0.5893009901046753 0.7557960152626038
          0.5478489995002747 -0.6150360107421875 0.5670909881591797 0.7861089706420898 -0.4386790096759796 0.43542298674583435
          0.7778880000114441 -0.09692399948835373 0.6208840012550354 0.4654729962348938 -0.14535599946975708 0.8730440139770508
          0.5725939869880676 -0.13222600519657135 0.8091059923171997 0.9569129943847656 0.03320999816060066 0.2884710133075714
          0.8807160258293152 0.01825599931180477 0.4732919931411743 0.9727069735527039 0.019598999992012978 0.23120899498462677
          0.9871770143508911 -0.08053799718618393 0.13782399892807007 0.9888870120048523 -0.13562500476837158 0.060899000614881516
          0.9344159960746765 -0.34448501467704773 0.09053099900484085 0.9800699949264526 -0.1904820054769516 -0.056386999785900116
          0.7599909901618958 -0.5280240178108215 0.3789519965648651 0.868353009223938 -0.4644240140914917 0.1739950031042099
          0.9936079978942871 -0.10416000336408615 -0.04352400079369545 0.9547669887542725 -0.09261800348758698 -0.2825619876384735
          0.00042299999040551484 -0.5398569703102112 0.8417569994926453 -0.23636400699615479 -0.5095570087432861 0.8273360133171082
          -0.13836200535297394 -0.5812090039253235 0.8019049763679504 0.1554819941520691 -0.4239960014820099 0.8922179937362671
          0.1732880026102066 -0.367823988199234 0.9136070013046265 0.21152900159358978 -0.381754994392395 0.8997330069541931
          0.2635200023651123 -0.29446500539779663 0.918612003326416 -0.022283999249339104 -0.7033780217170715 0.7104669809341431
          0.173785001039505 -0.7321749925613403 0.6585729718208313 0.4675689935684204 -0.6966270208358765 0.5441409945487976
          0.6483020186424255 0.006297000218182802 0.7613570094108582 0.14684699475765228 -0.2714250087738037 0.9511910080909729
          0.24682000279426575 -0.20114299654960632 0.9479560256004333 0.4570600092411041 -0.027943000197410583 0.8889970183372498
          0.5497000217437744 0.12124499678611755 0.8265169858932495 0.42660900950431824 -0.07835199683904648 0.9010360240936279
          0.9155899882316589 0.1084590032696724 0.38721099495887756 0.9447119832038879 0.19037500023841858 0.266975998878479
          0.7875310182571411 0.12243200093507767 0.6039909720420837 0.927245020866394 0.2571290135383606 0.27221399545669556
          0.977940022945404 0.06265600025653839 0.19926799833774567 0.9436249732971191 0.1456270068883896 0.2972629964351654
          0.9890879988670349 -0.036465998739004135 0.1427450031042099 0.9763649702072144 -0.21478700637817383 -0.02403699979186058
          0.8396819829940796 -0.5329300165176392 0.10450299829244614 0.8553829789161682 -0.5172669887542725 0.0274679996073246
          0.9003850221633911 -0.4208129942417145 0.11056199669837952 0.9628570079803467 -0.09727200120687485 -0.25188198685646057
          0.6938940286636353 -0.6296859979629517 0.3492949903011322 0.9942749738693237 0.05455400049686432 -0.09187000244855881
          0.9568979740142822 -0.021696999669075012 -0.2896119952201843 0.9731680154800415 0.016760999336838722 -0.22948600351810455
          0.9262319803237915 -0.03379499912261963 -0.3754369914531708 0.8847799897193909 -0.10150299966335297 -0.45482000708580017
          0.8658760190010071 -0.09739500284194946 -0.49068498611450195 0.8923580050468445 -0.0692560002207756 -0.44598299264907837
          -0.07658799737691879 -0.4482269883155823 0.8906329870223999 -0.36731401085853577 -0.5424479842185974 0.75553297996521
          -0.10486099869012833 -0.4025300145149231 0.9093809723854065 -0.2495799958705902 -0.46329399943351746 0.8503339886665344
          -0.35102900862693787 -0.4740700125694275 0.8074880242347717 -0.40246498584747314 -0.5002139806747437 0.7666860222816467
          -0.362296998500824 -0.5643749833106995 0.741769015789032 -0.2990339994430542 -0.6140220165252686 0.7304490208625793
          -0.07455900311470032 -0.715533971786499 0.6945880055427551 0.13155199587345123 -0.7124019861221313 0.6893309950828552
          0.3933520019054413 -0.7078480124473572 0.5867069959640503 0.4661020040512085 0.14458799362182617 0.8728359937667847
          0.6591619849205017 0.19244100153446198 0.7269610166549683 0.028269000351428986 -0.25918400287628174 0.9654139876365662
          0.20645399391651154 -0.13585999608039856 0.9689779877662659 0.39976799488067627 0.1540289968252182 0.903581976890564
          0.5299170017242432 0.36280399560928345 0.7665249705314636 0.4846999943256378 0.09679999947547913 0.8693079948425293
          0.4047259986400604 0.3951610028743744 0.8246480226516724 0.7964529991149902 0.25568199157714844 0.5479859709739685
          0.8284620046615601 0.4027020037174225 0.3892059922218323 0.8367630243301392 0.425476998090744 0.34466999769210815
          0.805374026298523 0.4289659857749939 0.4090979993343353 0.9132289886474609 0.3315330147743225 0.23684999346733093
          0.9708459973335266 0.1865440011024475 0.15052799880504608 0.9950799942016602 0.09308599680662155 0.03392999991774559
          0.9335119724273682 -0.3585290014743805 -0.0036359999794512987 0.9481920003890991 -0.19283999502658844 -0.2524780035018921
          0.7254019975662231 -0.6599460244178772 0.19561100006103516 0.7651939988136292 -0.6326640248298645 0.11922299861907959
          0.8384900093078613 -0.5373070240020752 0.0907450020313263 0.8497250080108643 -0.5056449770927429 0.14930100739002228
          0.9073929786682129 -0.12786799669265747 -0.40035900473594666 0.42761901021003723 -0.7666670083999634 0.47891899943351746
          0.94964998960495 0.08015099912881851 -0.3028860092163086 0.9818289875984192 0.13092899322509766 -0.13736499845981598
          0.9458010196685791 -0.010107999667525291 -0.3245899975299835 0.8696609735488892 -0.10852299630641937 -0.4815729856491089
          0.9253280162811279 -0.0952330008149147 -0.36701199412345886 0.8994690179824829 -0.15131999552249908 -0.40994998812675476
          0.8383769989013672 -0.18814300000667572 -0.5115919709205627 0.835565984249115 -0.21451400220394135 -0.5057790279388428
          0.8293920159339905 -0.10971499979496002 -0.5477880239486694 0.8655089735984802 -0.16424599289894104 -0.4731990098953247
          -0.45787298679351807 -0.5262389779090881 0.7165369987487793 -0.2836019992828369 -0.4207710027694702 0.8616970181465149
          -0.08809000253677368 -0.31329700350761414 0.9455609917640686 -0.49114200472831726 -0.42526501417160034 0.760217010974884
          -0.06095600128173828 -0.6369770169258118 0.768468976020813 -0.11910899728536606 -0.6992380023002625 0.7048969864845276
          -0.45392099022865295 -0.49570798873901367 0.7404249906539917 -0.3630709946155548 -0.5725409984588623 0.7351030111312866
          0.14118699729442596 -0.7167490124702454 0.6828889846801758 0.2807619869709015 0.3003230094909668 0.9115800261497498
          0.5058559775352478 0.31809601187705994 0.801826000213623 0.06359300017356873 -0.20097500085830688 0.9775300025939941
          0.3746050000190735 0.08783499896526337 0.9230149984359741 0.4775879979133606 0.4479770064353943 0.7557950019836426
          0.39683499932289124 0.27772900462150574 0.8748649954795837 0.4314819872379303 0.541113018989563 0.7218170166015625
          0.2672249972820282 0.46571698784828186 0.8436220288276672 0.3486180007457733 0.6010879874229431 0.7191370129585266
          0.584775984287262 0.4677349925041199 0.6627680063247681 0.7427269816398621 0.4849640130996704 0.4616990089416504
          0.6653779745101929 0.5182200074195862 0.537326991558075 0.5557950139045715 0.542290985584259 0.6300899982452393
          0.6108980178833008 0.558912992477417 0.5607320070266724 0.8443319797515869 0.48965001106262207 0.2175920009613037
          0.9696750044822693 0.243134006857872 0.02481899969279766 0.9086670279502869 -0.3319090008735657 -0.2533000111579895
          0.8760550022125244 -0.48220598697662354 -0.002119000069797039 0.49583500623703003 -0.7914749979972839 0.3573729991912842
          0.5059019923210144 -0.8008549809455872 0.3204599916934967 0.4163300096988678 -0.8067129850387573 0.4193840026855469
          0.5960720181465149 -0.7449420094490051 0.29959800839424133 0.7920969724655151 -0.5897989869117737 0.15722200274467468
          0.8654530048370361 -0.49983298778533936 -0.03403199836611748 0.841992974281311 -0.5346180200576782 -0.07233499735593796
          0.8373690247535706 -0.5372539758682251 -0.10085699707269669 0.8684059977531433 -0.49501898884773254 -0.028766000643372536
          0.1145239993929863 -0.7890570163726807 0.6035500168800354 0.9654330015182495 0.06254199892282486 -0.2530379891395569
          0.9571170210838318 0.20887599885463715 -0.2007409930229187 0.9534549713134766 -0.10835199803113937 -0.2813960015773773
          0.8710309863090515 -0.15062299370765686 -0.46756601333618164 0.8444100022315979 -0.16784200072288513 -0.5087249875068665
          0.8393740057945251 -0.2111479938030243 -0.5008659958839417 0.8905979990959167 -0.21213999390602112 -0.4022830128669739
          0.7490869760513306 -0.29270198941230774 -0.5943009853363037 0.7865340113639832 -0.2228890061378479 -0.5759199857711792
          0.7818750143051147 -0.24745799601078033 -0.5722200274467468 0.8585460186004639 -0.37031498551368713 -0.35463300347328186
          -0.502265989780426 -0.45327699184417725 0.7363889813423157 -0.194241002202034 -0.32615000009536743 0.9251469969749451
          -0.5139219760894775 -0.24275100231170654 0.8227739930152893 -0.42394599318504333 -0.2982049882411957 0.8551859855651855
          0.4834359884262085 -0.35930800437927246 0.7982400059700012 -0.12499500066041946 -0.7389289736747742 0.6620879769325256
          -0.26278799772262573 -0.654233992099762 0.7091689705848694 -0.5899329781532288 -0.3504300117492676 0.727446973323822
          -0.45704200863838196 -0.4138909876346588 0.7872779965400696 -0.31081700325012207 -0.4483639895915985 0.8380709886550903
          -0.403764009475708 -0.44514599442481995 0.7992619872093201 -0.37427398562431335 -0.5219830274581909 0.7664539813995361
          -0.4270089864730835 -0.5272110104560852 0.7346510291099548 -0.37317100167274475 -0.5094959735870361 0.7753430008888245
          -0.29571399092674255 -0.47825199365615845 0.8269389867782593 -0.10748499631881714 -0.20302599668502808 0.97325599193573
          0.19879400730133057 0.016016999259591103 0.9799100160598755 0.22861500084400177 0.3037070035934448 0.924930989742279
          0.2738730013370514 0.47484999895095825 0.8363680243492126 0.05969199910759926 0.04014100134372711 0.9974089860916138
          0.11166000366210938 0.49768999218940735 0.8601379990577698 0.20342899858951569 0.5240799784660339 0.8270170092582703
          0.3418689966201782 0.5719580054283142 0.7456470131874084 0.36671900749206543 0.582647979259491 0.725284993648529
          0.47195199131965637 0.6531969904899597 0.5921109914779663 0.4497630000114441 0.608240008354187 0.654030978679657
          0.3418729901313782 0.5915340185165405 0.7302119731903076 0.3462100028991699 0.6253679990768433 0.6993240118026733
          0.5973219871520996 0.6229119896888733 0.5051609873771667 0.9430140256881714 0.3326849937438965 0.006678000092506409
          0.9488360285758972 0.30486199259757996 -0.08227899670600891 0.7995449900627136 0.5786470174789429 0.16092300415039062
          0.6492379903793335 0.6503430008888245 0.3943899869918823 0.9111850261688232 0.41043099761009216 0.03588800132274628
          0.9005900025367737 0.428180992603302 -0.07481999695301056 0.24567699432373047 -0.81843501329422 0.5194299817085266
          0.2633349895477295 -0.8125749826431274 0.5199769735336304 0.5517259836196899 -0.7268540263175964 0.4090000092983246
          0.12545999884605408 -0.760424017906189 0.6371930241584778 0.828236997127533 -0.5336719751358032 0.17093400657176971
          0.8794940114021301 -0.4666230082511902 -0.09356299787759781 0.8322719931602478 -0.41510799527168274 -0.3674370050430298
          0.849636971950531 -0.41822201013565063 -0.321260005235672 0.8237090110778809 -0.4174320101737976 -0.3837369978427887
          0.8300470113754272 -0.4195919930934906 -0.3673740029335022 -0.04526299983263016 -0.7410309910774231 0.6699429750442505
          0.9732789993286133 -0.09688399732112885 -0.20818400382995605 0.9622780084609985 0.174002006649971 -0.20915399491786957
          0.9875730276107788 -0.07551900297403336 -0.1378280073404312 0.9678699970245361 0.18351200222969055 -0.1719059944152832
          0.9688320159912109 -0.16616100072860718 -0.18372699618339539 0.9312779903411865 -0.2665790021419525 -0.248307004570961
          0.8340849876403809 -0.3128030002117157 -0.4543749988079071 0.8414679765701294 -0.36075299978256226 -0.4022290110588074
          0.6845080256462097 -0.2738659977912903 -0.6756079792976379 0.5912669897079468 -0.37209901213645935 -0.715503990650177
          0.7272369861602783 -0.4150939881801605 -0.5466480255126953 0.6135879755020142 -0.4266270101070404 -0.6644539833068848
          0.781216025352478 -0.2932020127773285 -0.5511220097541809 0.7185829877853394 -0.24954499304294586 -0.6491270065307617
          0.7989339828491211 -0.3090989887714386 -0.5159090161323547 -0.33285000920295715 -0.24527199566364288 0.910522997379303
          -0.627560019493103 -0.23881499469280243 0.7410370111465454 -0.45957300066947937 -0.07500900328159332 0.884967029094696
          -0.5019469857215881 -0.21694999933242798 0.8372470140457153 -0.5708940029144287 0.045855000615119934 0.8197429776191711
          -0.5489500164985657 -0.008674000389873981 0.8358110189437866 0.747219979763031 -0.21813200414180756 0.6277589797973633
          0.4882180094718933 -0.29801100492477417 0.8202639818191528 -0.15520000457763672 -0.626285970211029 0.7639880180358887
          -0.5488529801368713 -0.36474698781967163 0.7521430253982544 -0.5840809941291809 -0.3440859913825989 0.7351559996604919
          -0.6043789982795715 -0.21786099672317505 0.7663310170173645 -0.6293910145759583 -0.19290199875831604 0.7527649998664856
          -0.3375590145587921 -0.3323189914226532 0.8806920051574707 -0.18197500705718994 -0.41225698590278625 0.8927090167999268
          -0.2369769960641861 -0.39196300506591797 0.8889359831809998 -0.2859230041503906 -0.46317601203918457 0.8388779759407043
          -0.33322200179100037 -0.4917379915714264 0.8044610023498535 -0.15748299658298492 -0.39165401458740234 0.9065350294113159
          -0.2813569903373718 -0.14051899313926697 0.9492589831352234 -0.18833400309085846 0.08830100297927856 0.9781270027160645
          -0.05721399933099747 0.3235059976577759 0.9444950222969055 -0.11418399959802628 0.4079129993915558 0.9058529734611511
          0.09887900203466415 0.46981099247932434 0.8772119879722595 -0.14007200300693512 0.3420020043849945 0.9292010068893433
          -0.07504700124263763 0.42885899543762207 0.9002490043640137 0.19400499761104584 0.5314610004425049 0.8245670199394226
          0.5368189811706543 0.5899009704589844 0.6031929850578308 0.6265100240707397 0.5630789995193481 0.5389119982719421
          0.40639400482177734 0.644366979598999 0.6477929949760437 0.21960200369358063 0.6526309847831726 0.7251539826393127
          0.15511000156402588 0.5797730088233948 0.7998780012130737 -0.023245999589562416 0.48972898721694946 0.8715649843215942
          0.20134399831295013 0.6768580079078674 0.7080420255661011 0.4215860068798065 0.6797670125961304 0.600151002407074
          0.9336640238761902 0.3244340121746063 -0.15170399844646454 0.9543219804763794 0.27458301186561584 -0.11778800189495087
          0.6240050196647644 0.6838759779930115 0.37806299328804016 0.8663949966430664 0.4993390142917633 0.004490000195801258
          0.7589399814605713 0.6314939856529236 0.15882399678230286 0.6014450192451477 0.7249159812927246 0.3357999920845032
          0.3586040139198303 0.7272670269012451 0.5852239727973938 0.9292849898338318 0.3397409915924072 -0.14493300020694733
          0.9335460066795349 0.3419930040836334 -0.10739199817180634 0.8599129915237427 0.5049279928207397 -0.07481499761343002
          0.045889999717473984 -0.7881559729576111 0.6137620210647583 0.3642820119857788 -0.7398959994316101 0.5655549764633179
          0.7729660272598267 -0.6181769967079163 0.1427610069513321 0.6388170123100281 -0.6894360184669495 0.34145399928092957
          -0.08105199784040451 -0.603879988193512 0.7929440140724182 0.0943949967622757 -0.7220820188522339 0.6853370070457458
          0.8131769895553589 -0.5817930102348328 0.016147000715136528 0.834151029586792 -0.5281050205230713 -0.15905199944972992
          0.8095239996910095 -0.4289399981498718 -0.40084999799728394 0.7660959959030151 -0.34785398840904236 -0.5404580235481262
          0.7554969787597656 -0.29723501205444336 -0.5838450193405151 0.697646975517273 -0.4126729965209961 -0.5856530070304871
          0.9939659833908081 -0.08548200130462646 -0.06872999668121338 0.992031991481781 0.11667799949645996 -0.047534000128507614
          0.99794602394104 -0.03459800034761429 -0.053909000009298325 0.977948009967804 -0.18821200728416443 -0.09052100032567978
          0.91532301902771 -0.2957650125026703 -0.27332499623298645 0.9684829711914062 -0.22053399682044983 -0.11578100174665451
          0.9575430154800415 -0.2370689958333969 -0.1640399992465973 0.9021570086479187 -0.35172200202941895 -0.24980899691581726
          0.8924700021743774 -0.3162190020084381 -0.3217189908027649 0.7698010206222534 -0.4224329888820648 -0.47849398851394653
          0.8437790274620056 -0.35540899634361267 -0.40214601159095764 0.7289019823074341 -0.4654429852962494 -0.5020610094070435
          0.5964869856834412 -0.3218039870262146 -0.7352859973907471 0.43540799617767334 -0.4334140121936798 -0.789031982421875
          0.5787339806556702 -0.4729689955711365 -0.6643549799919128 0.5916129946708679 -0.5378919839859009 -0.6005550026893616
          0.48593199253082275 -0.4848490059375763 -0.7271810173988342 0.6112120151519775 -0.31829699873924255 -0.7246419787406921
          -0.3771890103816986 0.14191100001335144 0.9151999950408936 -0.6632559895515442 -0.1264519989490509 0.7376329898834229
          -0.6664559841156006 0.0036239998880773783 0.7455360293388367 -0.44432899355888367 0.16116200387477875 0.8812479972839355
          -0.4449630081653595 0.26272401213645935 0.8561450242996216 -0.5851820111274719 0.20378899574279785 0.7848770022392273
          -0.41930198669433594 0.24730199575424194 0.8735139966011047 -0.40862300992012024 -0.19195500016212463 0.8922899961471558
          -0.6031330227851868 -0.14774900674819946 0.7838370203971863 -0.6560789942741394 -0.04520700126886368 0.753337025642395
          -0.3286699950695038 -0.2601720094680786 0.9079020023345947 -0.12927399575710297 -0.3346090018749237 0.9334480166435242
          -0.23838099837303162 -0.28922900557518005 0.9271029829978943 -0.33357399702072144 -0.3644999861717224 0.8694069981575012
          -0.3402180075645447 -0.3493669927120209 0.8730379939079285 -0.09722299873828888 -0.5768160223960876 0.8110679984092712
          -0.25390100479125977 -0.44735199213027954 0.8575609922409058 -0.1590700000524521 -0.40082499384880066 0.9022390246391296
          -0.23780299723148346 -0.42088499665260315 0.8753889799118042 -0.22693100571632385 -0.39031699299812317 0.8922749757766724
          -0.11877299845218658 -0.4562569856643677 0.8818860054016113 -0.2789349853992462 0.2462559938430786 0.9281989932060242
          -0.2594720125198364 0.29918500781059265 0.9182389974594116 -0.2297929972410202 0.40101298689842224 0.8867830038070679
          0.18432599306106567 0.6047559976577759 0.7747870087623596 0.4614579975605011 0.6512799859046936 0.6024050116539001
          0.43572500348091125 0.6480510234832764 0.6246389746665955 0.19892999529838562 0.7179849743843079 0.6670259833335876
          0.42535400390625 0.6643440127372742 0.6145910024642944 -0.2234880030155182 0.509818971157074 0.8307449817657471
          -0.15742400288581848 0.5196530222892761 0.8397489786148071 -0.3481149971485138 0.46285301446914673 0.8152199983596802
          -0.42985799908638 0.3352609872817993 0.8383449912071228 -0.4525730013847351 0.3294369876384735 0.8286420106887817
          0.9480339884757996 0.31718000769615173 0.02506300061941147 0.38204801082611084 0.7535600066184998 0.5349640250205994
          0.8199340105056763 0.5703070163726807 0.049570001661777496 0.537306010723114 0.8022000193595886 0.26034000515937805
          0.7377390265464783 0.672186017036438 0.0625080019235611 0.3307430148124695 0.7932980060577393 0.5111619830131531
          0.934844970703125 0.3365580141544342 -0.1131109967827797 0.9311879873275757 0.36403200030326843 -0.019200000911951065
          0.9330450296401978 0.3596290051937103 -0.009755999781191349 0.8483160138130188 0.5288670063018799 0.02566700056195259
          0.9189680218696594 0.3942520022392273 0.008011000230908394 0.6693800091743469 0.7408679723739624 0.05519000068306923
          0.10887199640274048 -0.8317679762840271 0.5443419814109802 0.2945629954338074 -0.8107699751853943 0.5058509707450867
          0.5491290092468262 -0.7145519852638245 0.43344300985336304 0.6982139945030212 -0.7155200242996216 0.022987000644207
          0.7543780207633972 -0.6134070158004761 -0.23376500606536865 0.5111610293388367 -0.8125240206718445 0.28021299839019775
          0.03099600039422512 -0.7215989828109741 0.6916170120239258 0.7101889848709106 -0.5308870077133179 -0.4623749852180481
          0.6129779815673828 -0.5614640116691589 -0.5558919906616211 0.5028120279312134 -0.4177510142326355 -0.7567459940910339
          0.9742339849472046 0.2223930060863495 0.03753900155425072 0.953607976436615 0.2944670021533966 0.06261800229549408
          0.9998300075531006 -0.018383000046014786 0.0016129999421536922 0.9770249724388123 -0.20973700284957886 -0.03784700110554695
          0.8125190138816833 -0.47891199588775635 -0.3323479890823364 0.9196649789810181 -0.36121198534965515 -0.15408499538898468
          0.7075340151786804 -0.5516210198402405 -0.44171300530433655 0.4270949959754944 -0.3730430006980896 -0.8236680030822754
          0.24679400026798248 -0.43507999181747437 -0.8659089803695679 0.28557100892066956 -0.4907670021057129 -0.8231629729270935
          0.41667500138282776 -0.5825729966163635 -0.6978470087051392 0.5534520149230957 -0.6365050077438354 -0.5371699929237366
          0.40180501341819763 -0.3576500117778778 -0.842993974685669 0.450857013463974 -0.3425140082836151 -0.8242650032043457
          -0.6145520210266113 -0.09661299735307693 0.7829369902610779 -0.543042004108429 0.10192299634218216 0.8334969878196716
          -0.6776109933853149 0.008061000145971775 0.7353760004043579 -0.5489479899406433 0.2600809931755066 0.7943639755249023
          -0.5212849974632263 0.1577800065279007 0.838670015335083 0.9467909932136536 -0.0340379998087883 0.32004499435424805
          0.7536159753799438 0.05353600159287453 0.6551309823989868 -0.5339159965515137 -0.018177999183535576 0.8453419804573059
          -0.4397430121898651 -0.035284001380205154 0.8974300026893616 -0.5101479887962341 -0.20098799467086792 0.8362740278244019
          -0.5684379935264587 -0.1287820041179657 0.8125849962234497 -0.6526709794998169 0.06280200183391571 0.7550340294837952
          -0.5008770227432251 0.10513400286436081 0.8591089844703674 -0.6579020023345947 -0.035220999270677567 0.7522799968719482
          -0.6431329846382141 0.027465999126434326 0.7652609944343567 -0.6387240290641785 0.08645900338888168 0.7645630240440369
          -0.40571901202201843 -0.3773469924926758 0.8324670195579529 -0.4385960102081299 -0.3989109992980957 0.8052970170974731
          -0.4664759933948517 -0.4067400097846985 0.7854700088500977 -0.43301400542259216 -0.3846449851989746 0.8151980042457581
          -0.5307949781417847 -0.3571639955043793 0.768563985824585 -0.09391099959611893 -0.7414799928665161 0.6643710136413574
          0.010065999813377857 -0.7099459767341614 0.7041839957237244 -0.08957800269126892 -0.38015198707580566 0.9205759763717651
          -0.06126200035214424 -0.538004994392395 0.8407120108604431 -0.07509499788284302 -0.35876399278640747 0.9304029941558838
          -0.36553800106048584 -0.4576509892940521 0.8105170130729675 -0.1150209978222847 -0.3086020052433014 0.9442110061645508
          -0.3571139872074127 -0.4383910000324249 0.8247929811477661 0.05727799981832504 0.613008975982666 0.7879970073699951
          0.4422309994697571 0.7326989769935608 0.5172849893569946 0.4302240014076233 0.6109859943389893 0.6645320057868958
          0.13808999955654144 0.6132199764251709 0.7777479887008667 -0.3539240062236786 0.36803799867630005 0.8598179817199707
          0.3993369936943054 0.8199599981307983 0.4101159870624542 0.5259220004081726 0.8234429955482483 0.21295000612735748
          0.9075599908828735 0.4077549874782562 0.10035700350999832 0.8086180090904236 0.5610719919204712 0.17701800167560577
          0.6557949781417847 0.7355909943580627 0.16982099413871765 0.877206027507782 0.40915799140930176 0.2511950135231018
          0.9110350012779236 0.3909049928188324 0.13118399679660797 0.9224969744682312 0.3530980050563812 0.15594899654388428
          0.9499319791793823 0.2353450059890747 0.20553000271320343 0.11504200100898743 -0.7543179988861084 0.6463509798049927
          0.1802929937839508 -0.9171059727668762 0.35554298758506775 0.22300100326538086 -0.7688530087471008 0.5992799997329712
          0.3648340106010437 -0.8461980223655701 0.388388991355896 0.4105969965457916 -0.8478220105171204 0.3355709910392761
          0.6664149761199951 -0.6511300206184387 -0.3632090091705322 0.6308879852294922 -0.773190975189209 -0.0644650012254715
          0.5569440126419067 -0.8298100233078003 0.03505000099539757 0.6655049920082092 -0.6809390187263489 -0.30565500259399414
          0.660260021686554 -0.6886810064315796 -0.2996250092983246 0.5245580077171326 -0.5584250092506409 -0.6426510214805603
          0.33009499311447144 -0.5473600029945374 -0.7690479755401611 0.32303598523139954 -0.41335800290107727 -0.8513420224189758
          0.8953920006752014 0.4010950028896332 0.1933780014514923 0.9591599702835083 0.2516449987888336 0.1291780024766922
          0.9974330067634583 0.008042999543249607 0.07115499675273895 0.9634510278701782 -0.2630620002746582 0.050595998764038086
          0.989329993724823 -0.026514999568462372 0.14325900375843048 0.8592249751091003 -0.4849640130996704 -0.16291600465774536
          0.6572570204734802 -0.653253972530365 -0.3758620023727417 0.6529690027236938 -0.6955909729003906 -0.2996389865875244
          0.8032900094985962 -0.54961097240448 -0.22946399450302124 0.9133930206298828 -0.406235009431839 -0.026196999475359917
          0.2044530063867569 -0.42417898774147034 -0.8821970224380493 0.012519000098109245 -0.5030750036239624 -0.8641520142555237
          0.22790899872779846 -0.5945429801940918 -0.7710880041122437 0.38548898696899414 -0.6909880042076111 -0.6115009784698486
          0.30515798926353455 -0.6688330173492432 -0.6778939962387085 0.3720259964466095 -0.762844979763031 -0.5288329720497131
          0.5561550259590149 -0.7112690210342407 -0.42987000942230225 0.2790699899196625 -0.3794519901275635 -0.8821200132369995
          0.7468799948692322 0.1158050000667572 0.6547970175743103 0.9515219926834106 0.023056000471115112 0.30671700835227966
          -0.5565339922904968 0.19823099672794342 0.8068299889564514 0.10771200060844421 0.17585599422454834 0.97850501537323
          -0.5567089915275574 0.13469700515270233 0.8197140097618103 0.44376200437545776 0.018146000802516937 0.8959609866142273
          -0.38733699917793274 0.0846640020608902 0.9180430173873901 -0.5484150052070618 -0.0010140000376850367 0.8362060189247131