<?xml version="1.0"?>
<VTKFile type="PolyData" version="0.1" byte_order="LittleEndian" header_type="UInt32" compressor="vtkZLibDataCompressor">
  <PolyData>
    <Piece NumberOfPoints="1616" NumberOfVerts="0" NumberOfLines="0" NumberOfStrips="0" NumberOfPolys="3228">
      <PointData Normals="Normals">
        <DataArray type="Float32" Name="Normals" NumberOfComponents="3" format="ascii" RangeMin="0.9999992899194298" RangeMax="1.000000861750149">
          -0.3892819881439209 -0.7862309813499451 0.47989600896835327 -0.5505080223083496 -0.6433870196342468 0.5319719910621643
          -0.3438340127468109 -0.7784410119056702 0.5251740217208862 -0.33169499039649963 -0.8477259874343872 0.4139310121536255
          -0.5805910229682922 -0.7582659721374512 0.29655900597572327 -0.38538700342178345 -0.8310620188713074 0.4010150134563446
          -0.42530399560928345 -0.6350529789924622 0.6448439955711365 -0.4189000129699707 -0.47376200556755066 0.7746440172195435
          -0.6987990140914917 -0.5948709845542908 0.39725199341773987 -0.6405349969863892 -0.5122399926185608 0.5721240043640137
          -0.7601249814033508 -0.613644003868103 0.21366100013256073 -0.46487998962402344 -0.7292389869689941 0.5020930171012878
          -0.2576810121536255 -0.8735759854316711 0.4128749966621399 -0.19745999574661255 -0.8473479747772217 0.4929620027542114
          -0.15703299641609192 -0.8526149988174438 0.4983859956264496 -0.16112899780273438 -0.9427549839019775 0.2919749915599823
          -0.271712988615036 -0.9157810211181641 0.2958320081233978 -0.2952199876308441 -0.8458179831504822 0.4443399906158447
          -0.6951490044593811 -0.7188509702682495 0.00458399998024106 -0.5071060061454773 -0.8571029901504517 0.0906509980559349
          -0.41429099440574646 -0.8811540007591248 0.22788099944591522 -0.4428260028362274 -0.6011279821395874 0.6652439832687378
          -0.5321409702301025 -0.5045560002326965 0.6798890233039856 -0.2838580012321472 -0.4433409869670868 0.8502200245857239
          -0.3421289920806885 -0.4842959940433502 0.8052359819412231 -0.47171398997306824 -0.5287129878997803 0.7056540250778198
          -0.7040899991989136 -0.523389995098114 0.4799180030822754 -0.8418290019035339 -0.5198739767074585 0.14510199427604675
          -0.7985450029373169 -0.599390983581543 -0.055282000452280045 -0.8904100060462952 -0.455157995223999 0.0012029999634250998
          -0.6430670022964478 -0.7285090088844299 0.2360910028219223 -0.47951000928878784 -0.8008360266685486 0.3587920069694519
          -0.6520339846611023 -0.669963002204895 0.35496699810028076 -0.6009160280227661 -0.5962830185890198 0.532302975654602
          -0.024879999458789825 -0.9024559855461121 0.43006300926208496 -0.4991550147533417 -0.8129580020904541 0.299905002117157
          -0.39606600999832153 -0.8313140273094177 0.3899349868297577 -0.23343400657176971 -0.9380530118942261 0.256056010723114
          -0.024602999910712242 -0.9548249840736389 0.29614999890327454 -0.04444500058889389 -0.9554870128631592 0.2916660010814667
          0.16239899396896362 -0.9498530030250549 0.26721900701522827 -0.12291999906301498 -0.9648870229721069 0.23212799429893494
          -0.35225799679756165 -0.9149100184440613 0.1971140056848526 -0.25051701068878174 -0.8693469762802124 0.42600101232528687
          -0.06660299748182297 -0.99692702293396 0.04125100001692772 -0.07496999949216843 -0.9755290150642395 0.20669500529766083
          -0.5701829791069031 -0.8167799711227417 -0.0881040021777153 -0.6531260013580322 -0.7533400058746338 0.0768439993262291
          -0.5552070140838623 -0.831587016582489 0.01445200014859438 -0.5101029872894287 -0.8566529750823975 -0.07707899808883667
          -0.4921630024909973 -0.5398470163345337 0.6828920245170593 -0.6183639764785767 -0.5071759819984436 0.6003320217132568
          -0.5111619830131531 -0.4582880139350891 0.7271069884300232 -0.44483301043510437 -0.46433401107788086 0.7658439874649048
          -0.8003330230712891 -0.4782389998435974 0.36160001158714294 -0.8823310136795044 -0.43759799003601074 0.17320600152015686
          -0.8869069814682007 -0.4542810022830963 0.08381800353527069 -0.8787850141525269 -0.470194011926651 0.08157400041818619
          -0.9030629992485046 -0.41478800773620605 0.11147800087928772 -0.8127859830856323 -0.5809640288352966 -0.04312799870967865
          -0.8830289840698242 -0.4680269956588745 0.03480599820613861 -0.792294979095459 -0.5877339839935303 0.1638229936361313
          -0.8456590175628662 -0.5167570114135742 0.13350500166416168 -0.5848039984703064 -0.8081769943237305 0.06966300308704376
          -0.8051999807357788 -0.5892030000686646 0.06702899932861328 -0.7179219722747803 -0.6826379895210266 -0.13635799288749695
          -0.7222769856452942 -0.5430750250816345 0.4282360076904297 -0.8413159847259521 -0.49344301223754883 0.2206840068101883
          -0.710972011089325 -0.5124729871749878 0.4815489947795868 0.1259790062904358 -0.9295849800109863 0.3464129865169525
          -0.6035720109939575 -0.794933021068573 -0.061501000076532364 -0.5926790237426758 -0.8034669756889343 0.05631599947810173
          -0.5251610279083252 -0.8231390118598938 0.21598100662231445 -0.4451029896736145 -0.8935080170631409 0.05938500165939331
          -0.27581098675727844 -0.9547880291938782 -0.11094000190496445 -0.18352800607681274 -0.9808769822120667 0.06479500234127045
          -0.010797999799251556 -0.9766049981117249 0.21477000415325165 0.06792400032281876 -0.9927480220794678 0.09918200224637985
          -0.0681689977645874 -0.9964939951896667 0.04850799962878227 0.4189479947090149 -0.8812670111656189 0.21875
          0.5184969902038574 -0.8515430092811584 0.07769200205802917 0.36664900183677673 -0.9243559837341309 0.10552000254392624
          0.179748997092247 -0.9709810018539429 0.15775300562381744 -0.35041800141334534 -0.9286149740219116 -0.12198799848556519
          0.22689799964427948 -0.9702550172805786 0.0843920037150383 0.22125400602817535 -0.9640480279922485 -0.14716699719429016
          -0.05258600041270256 -0.9796590209007263 -0.19365699589252472 -0.34323498606681824 -0.850039005279541 0.39952999353408813
          -0.6611300110816956 -0.7491509914398193 0.04097200185060501 -0.45581600069999695 -0.83924800157547 0.2964699864387512
          -0.49122899770736694 -0.8194609880447388 0.29525700211524963 -0.4620549976825714 -0.869396984577179 -0.1750819981098175
          -0.2594900131225586 -0.9277120232582092 0.2683579921722412 -0.3119859993457794 -0.8691139817237854 0.38380399346351624
          -0.36344799399375916 -0.9316149950027466 0.000048000001697801054 -0.33884501457214355 -0.9300079941749573 -0.14236900210380554
          -0.6543580293655396 -0.4964059889316559 0.5704370141029358 -0.8066049814224243 -0.44443801045417786 0.38969600200653076
          -0.7952769994735718 -0.3674960136413574 0.4821630120277405 -0.6778900027275085 -0.41027599573135376 0.6100320219993591
          -0.4373280107975006 -0.4535540044307709 0.7765520215034485 -0.38842201232910156 -0.43365898728370667 0.813060998916626
          -0.30853500962257385 -0.4956809878349304 0.8118540048599243 -0.6279699802398682 -0.4748310148715973 0.6165949702262878
          -0.8113549947738647 -0.43946200609207153 0.38545599579811096 -0.9383040070533752 -0.28407299518585205 0.1971990019083023
          -0.8043069839477539 -0.4955730140209198 0.3278680145740509 -0.7697399854660034 -0.5832380056381226 0.2594889998435974
          -0.9127200245857239 -0.3830600082874298 0.14215199649333954 -0.8276429772377014 -0.4733999967575073 0.3014970123767853
          -0.7715319991111755 -0.6360980272293091 0.01082799956202507 -0.5964339971542358 -0.7561770081520081 0.2691900134086609
          -0.57225501537323 -0.6550329923629761 0.49341198801994324 -0.5582410097122192 -0.674763023853302 0.4827660024166107
          -0.6598899960517883 -0.7029979825019836 -0.2652139961719513 -0.904338002204895 -0.4229390025138855 0.05740800127387047
          -0.8202710151672363 -0.5344949960708618 -0.2036450058221817 -0.7082710266113281 -0.5578849911689758 -0.4325689971446991
          -0.8097950220108032 -0.46886900067329407 0.35269400477409363 0.27167201042175293 -0.9331380128860474 0.23547500371932983
          -0.6176339983940125 -0.6875770092010498 -0.38179299235343933 -0.6026020050048828 -0.7470930218696594 -0.28057700395584106
          -0.5702840089797974 -0.8096820116043091 -0.13853199779987335 -0.45579999685287476 -0.8103770017623901 -0.368151992559433
          -0.2429559975862503 -0.8206149935722351 -0.5172650218009949 -0.1889909952878952 -0.9315770268440247 -0.3105590045452118
          -0.2633729875087738 -0.910485029220581 -0.3188289999961853 0.03791600093245506 -0.9895380139350891 -0.1392029970884323
          0.07603900134563446 -0.8951110243797302 -0.4393109977245331 0.28929999470710754 -0.9555680155754089 -0.05653500184416771
          0.17222300171852112 -0.9260429739952087 -0.33583399653434753 -0.09972400218248367 -0.9364089965820312 -0.3364419937133789
          0.5066609978675842 -0.8521770238876343 0.13072499632835388 0.6863809823989868 -0.7256140112876892 -0.04864199832081795
          0.5742959976196289 -0.8055760264396667 -0.1457120031118393 0.6989439725875854 -0.7084450125694275 -0.09789299964904785
          0.4528209865093231 -0.8728929758071899 -0.1816900074481964 0.2685610055923462 -0.9625459909439087 -0.03713500127196312
          0.16212500631809235 -0.9867330193519592 -0.008604999631643295 -0.04496699944138527 -0.9963350296020508 0.07276000082492828
          -0.0861160010099411 -0.8503909707069397 0.5190560221672058 -0.24595299363136292 -0.8215810060501099 0.514307975769043
          0.0658160001039505 -0.8066149950027466 0.5874019861221313 -0.5296630263328552 -0.8226780295372009 0.20653900504112244
          -0.3136669993400574 -0.8483459949493408 0.42652401328086853 -0.05389799922704697 -0.7857890129089355 0.6161410212516785
          -0.24590200185775757 -0.9679219722747803 0.051569998264312744 -0.1353279948234558 -0.9008529782295227 0.4124920070171356
          -0.11700499802827835 -0.9614269733428955 0.24893300235271454 0.032639000564813614 -0.895563006401062 0.4437359869480133
          -0.9404399991035461 -0.30693599581718445 0.14616000652313232 -0.9734119772911072 -0.22110199928283691 0.05985099822282791
          -0.9274190068244934 -0.2618640065193176 0.26705899834632874 -0.9544500112533569 -0.18333899974822998 0.23539699614048004
          -0.8754670023918152 -0.25794199109077454 0.4086860120296478 -0.3857229948043823 -0.4634990096092224 0.7977380156517029
          -0.7813060283660889 -0.2975429892539978 0.5486609935760498 0.557869017124176 -0.39176398515701294 0.7316439747810364
          0.5214840173721313 -0.483817994594574 0.7028329968452454 -0.5183410048484802 -0.47704198956489563 0.7097560167312622
          -0.739251971244812 -0.47255998849868774 0.4797849953174591 -0.5381600260734558 -0.4919840097427368 0.6843500137329102
          -0.918578028678894 -0.31841200590133667 0.23415599763393402 -0.9460030198097229 -0.2589850127696991 0.19495099782943726
          -0.5642809867858887 -0.5848259925842285 0.582722008228302 -0.6036360263824463 -0.6249510049819946 0.49503499269485474
          -0.7968220114707947 -0.523123025894165 0.30235299468040466 -0.8547139763832092 -0.3818719983100891 0.351622998714447
          -0.329382985830307 -0.7452849745750427 0.579704999923706 -0.35271701216697693 -0.6945149898529053 0.6270890235900879
          -0.18436600267887115 -0.6751850247383118 0.7142369747161865 -0.35312700271606445 -0.6469389796257019 0.6758490204811096
          -0.6235939860343933 -0.5719619989395142 -0.5329070091247559 -0.9104700088500977 -0.34213799238204956 -0.23234699666500092
          -0.9435279965400696 -0.16550999879837036 -0.28698599338531494 -0.966821014881134 -0.22197000682353973 -0.12643800675868988
          -0.8913630247116089 -0.39317798614501953 0.22557200491428375 -0.9420089721679688 -0.3237819969654083 0.08823200315237045
          -0.7899259924888611 -0.3524560034275055 -0.5017889738082886 -0.5866569876670837 -0.4026080071926117 -0.7026669979095459
          0.3388429880142212 -0.9406740069389343 -0.01782199926674366 -0.5375900268554688 -0.5917389988899231 -0.6007009744644165
          -0.5128430128097534 -0.6890959739685059 -0.5119940042495728 -0.3763900101184845 -0.6288610100746155 -0.6803410053253174
          -0.20073500275611877 -0.5792700052261353 -0.7900329828262329 -0.17805500328540802 -0.7549909949302673 -0.6310979723930359
          -0.2530690133571625 -0.7435870170593262 -0.618897020816803 0.01862199977040291 -0.7368699908256531 -0.6757779717445374
          0.07284300029277802 -0.7131969928741455 -0.6971679925918579 0.13180500268936157 -0.6581140160560608 -0.7412919998168945
          0.2870210111141205 -0.8014739751815796 -0.5246509909629822 0.5047969818115234 -0.8525260090827942 -0.1355690062046051
          0.6553900241851807 -0.7090790271759033 -0.2601349949836731 0.6798689961433411 -0.5859649777412415 -0.4409340023994446
          0.7134969830513 -0.6279730200767517 -0.3107610046863556 0.7326329946517944 -0.6678000092506409 -0.1315010040998459
          0.6360499858856201 -0.7653049826622009 -0.09873999655246735 0.6963689923286438 -0.7032529711723328 -0.1431960016489029
          0.6123989820480347 -0.777351975440979 -0.14384600520133972 0.6595709919929504 -0.7509649991989136 -0.03189900144934654
          0.395143985748291 -0.9088659882545471 0.13350699841976166 0.6417739987373352 -0.7506009936332703 -0.15723800659179688
          0.594756007194519 -0.8032649755477905 0.0321119986474514 0.3638310134410858 -0.8950639963150024 0.2578519880771637
          0.3069329857826233 -0.8920210003852844 0.3317979872226715 0.12763600051403046 -0.9438470005989075 0.3047339916229248
          0.017729999497532845 -0.9389770030975342 0.3435229957103729 0.017482999712228775 -0.7588710188865662 0.6510069966316223
          0.1905820071697235 -0.8422160148620605 0.5043330192565918 0.296750009059906 -0.744113028049469 0.5985270142555237
          0.24742600321769714 -0.7011169791221619 0.6687420010566711 -0.14385299384593964 -0.7669090032577515 0.6254249811172485
          0.146588996052742 -0.6664929986000061 0.7309569716453552 -0.019161999225616455 -0.6755300164222717 0.7370830178260803
          -0.9857280254364014 -0.16687199473381042 -0.022241000086069107 -0.9880629777908325 -0.10942599922418594 -0.1084349974989891
          -0.9875929951667786 -0.13327200710773468 0.08306200057268143 -0.9873939752578735 -0.11212699860334396 -0.1117129996418953
          -0.9356939792633057 -0.1112160012125969 0.3348259925842285 -0.9779080152511597 -0.03730199858546257 0.2056789994239807
          -0.6302319765090942 -0.32559001445770264 0.7048389911651611 -0.46084100008010864 -0.40174901485443115 0.7913429737091064
          0.7746449708938599 -0.32578399777412415 0.5420230031013489 -0.8260650038719177 -0.18243099749088287 0.5332310199737549
          -0.27956798672676086 -0.4670189917087555 0.8388890027999878 -0.7109169960021973 -0.4577670097351074 0.5338969826698303
          -0.8632659912109375 -0.40508198738098145 0.30113300681114197 -0.66874098777771 -0.3438839912414551 0.6591879725456238
          -0.9405040144920349 -0.27939799427986145 0.1933629959821701 -0.9145990014076233 -0.22272400557994843 0.33749398589134216
          0.20730799436569214 -0.4649290144443512 0.8607349991798401 0.1963679939508438 -0.6779749989509583 0.7083709836006165
          -0.2131049931049347 -0.659214973449707 0.7211260199546814 -0.6377170085906982 -0.5508700013160706 0.5383859872817993
          -0.21496599912643433 -0.6277480125427246 0.7481459975242615 -0.4860740005970001 -0.5696110129356384 0.6627780199050903
          -0.5661150217056274 -0.48026201128959656 0.6699720025062561 -0.7900279760360718 -0.327347993850708 0.5183619856834412
          -0.10670900344848633 -0.6954730153083801 0.7105839848518372 -0.8861410021781921 -0.13500000536441803 -0.4433160126209259
          -0.890932023525238 -0.06257999688386917 -0.44980400800704956 -0.9598749876022339 -0.08384399861097336 -0.26760199666023254
          -0.6778339743614197 -0.2035990059375763 -0.706462025642395 -0.8115109801292419 -0.09464900195598602 -0.5766209959983826
          -0.44231200218200684 -0.3756740093231201 -0.8143889904022217 -0.44933098554611206 -0.24006199836730957 -0.8605070114135742
          -0.4654240012168884 -0.1587419956922531 -0.8707360029220581 0.3671410083770752 -0.8401899933815002 -0.39910799264907837
          -0.41679900884628296 -0.5294169783592224 -0.7389150261878967 -0.25700199604034424 -0.4337179958820343 -0.8636190295219421
          -0.18181400001049042 -0.3294149935245514 -0.9265149831771851 -0.16684900224208832 -0.5095130205154419 -0.8441320061683655
          0.02031099982559681 -0.3649210035800934 -0.9308170080184937 0.08044199645519257 -0.5412260293960571 -0.8370199799537659
          0.1407729983329773 -0.32020899653434753 -0.9368289709091187 0.2064570039510727 -0.47292599081993103 -0.8565729856491089
          0.2935279905796051 -0.5652179718017578 -0.7709540128707886 0.5021700263023376 -0.6542549729347229 -0.5654870271682739
          0.5699520111083984 -0.47975099086761475 -0.6670780181884766 0.552187979221344 -0.4065290093421936 -0.7278890013694763
          0.5018110275268555 -0.5409590005874634 -0.6749439835548401 0.5843430161476135 -0.6857079863548279 -0.4339909851551056
          0.6132839918136597 -0.7802760004997253 -0.12268500030040741 0.6689090132713318 -0.736473023891449 0.1008400022983551
          0.5126399993896484 -0.8570740222930908 -0.051238998770713806 0.7295629978179932 -0.6765120029449463 0.10034800320863724
          0.8039029836654663 -0.5882130265235901 0.08800899982452393 0.7340700030326843 -0.6782789826393127 0.03284800052642822
          0.758059024810791 -0.6494860053062439 0.05928200110793114 0.5805379748344421 -0.8020610213279724 -0.14026300609111786
          0.3818730115890503 -0.8027769923210144 0.457955002784729 0.4786800146102905 -0.80411297082901 0.35251501202583313
          0.5346999764442444 -0.7496849894523621 0.3899590075016022 0.3912619948387146 -0.714352011680603 0.5801860094070435
          0.288114994764328 -0.6164259910583496 0.7328090071678162 0.463483989238739 -0.6063740253448486 0.6461380124092102
          0.43903499841690063 -0.6553850173950195 0.6145880222320557 -0.01159599982202053 -0.6379690170288086 0.7699750065803528
          0.029062999412417412 -0.5767859816551208 0.8163779973983765 -0.9659079909324646 -0.0217250008136034 -0.25797098875045776
          -0.9959070086479187 -0.042736999690532684 -0.07964099943637848 -0.8879420161247253 -0.06926199793815613 0.454710990190506
          -0.9689739942550659 0.06848300248384476 0.23748500645160675 -0.9961829781532288 0.06995899975299835 0.05220000073313713
          -0.7775899767875671 -0.39086198806762695 0.49252501130104065 -0.9041529893875122 -0.331836998462677 0.2690570056438446
          -0.7668259739875793 -0.2854219973087311 0.5749009847640991 -0.9318270087242126 -0.2377540022134781 0.2741749882698059
          -0.9039469957351685 -0.19926899671554565 0.3783800005912781 -0.8745049834251404 -0.23805800080299377 0.4225749969482422
          -0.7125279903411865 -0.3136940002441406 0.6276140213012695 0.7980210185050964 -0.32227998971939087 0.5092139840126038
          -0.8557509779930115 -0.33040401339530945 0.3981499969959259 -0.3595210015773773 -0.543470025062561 0.7585409879684448
          -0.16556499898433685 -0.5093700289726257 0.8444700241088867 -0.30366599559783936 -0.505964994430542 0.8073329925537109
          -0.45159199833869934 -0.42612698674201965 0.7838879823684692 -0.6589490175247192 -0.3359510004520416 0.6729949712753296
          -0.8226940035820007 -0.08510000258684158 -0.5620790123939514 -0.8889420032501221 -0.09577299654483795 -0.44789499044418335
          -0.68504399061203 -0.09511400014162064 -0.7222660183906555 -0.21665999293327332 -0.17848999798297882 -0.9597920179367065
          -0.2586829960346222 -0.28228598833084106 -0.9237949848175049 -0.28726398944854736 -0.35927799344062805 -0.8879179954528809
          -0.2930940091609955 -0.10502299666404724 -0.950298011302948 -0.48423099517822266 -0.01130099967122078 -0.8748670220375061
          -0.23386499285697937 0.011216999962925911 -0.9722049832344055 -0.14444799721240997 -0.1921370029449463 -0.970678985118866
          -0.026362000033259392 -0.17508399486541748 -0.9842000007629395 0.03495800122618675 -0.1266539990901947 -0.9913309812545776
          -0.05698399990797043 -0.26723000407218933 -0.9619460105895996 0.15768399834632874 -0.08669299632310867 -0.9836770296096802
          0.2408449947834015 -0.16578100621700287 -0.9563000202178955 0.3907260000705719 -0.3534170091152191 -0.8499590158462524
          0.3777979910373688 -0.21155400574207306 -0.9013950228691101 0.5206310153007507 -0.34661999344825745 -0.7802550196647644
          0.3735490143299103 -0.243601992726326 -0.8950530290603638 0.41901999711990356 -0.30059799551963806 -0.8567749857902527
          0.26699098944664 -0.368925005197525 -0.8902860283851624 0.2599030137062073 -0.44544899463653564 -0.8567529916763306
          0.4982529878616333 -0.5903390049934387 -0.635013997554779 0.5585169792175293 -0.7262600064277649 -0.40075498819351196
          0.7321010231971741 -0.6796650290489197 0.04564499855041504 0.6286119818687439 -0.6918830275535583 0.35516899824142456
          0.5128260254859924 -0.7008669972419739 0.4957770109176636 0.9592610001564026 -0.2778469920158386 0.051187001168727875
          0.7879520058631897 -0.6149200201034546 0.03170499950647354 0.9638959765434265 -0.26210400462150574 0.04696600139141083
          0.7497649788856506 -0.6403250098228455 0.1668419986963272 0.9349370002746582 -0.3449859917163849 0.08292800188064575
          0.6530489921569824 -0.6944959759712219 -0.30199798941612244 0.7359709739685059 -0.6748660206794739 -0.05388300120830536
          0.6276090145111084 -0.6409199833869934 -0.4419589936733246 0.2107200026512146 -0.538985013961792 0.8155320286750793
          0.5206500291824341 -0.5355299711227417 0.664929986000061 0.39112401008605957 -0.5540289878845215 0.7348979711532593
          0.35033801198005676 -0.48873400688171387 0.7990009784698486 0.6311280131340027 -0.5767070055007935 0.5187360048294067
          0.6212109923362732 -0.5101580023765564 0.5948410034179688 0.5524550080299377 -0.64055997133255 0.5333619713783264
          -0.08832500129938126 -0.4880119860172272 0.8683570027351379 0.1808290034532547 -0.4714750051498413 0.8631410002708435
          -0.7512930035591125 -0.03246799856424332 -0.6591699719429016 -0.9691770076751709 0.12848800420761108 -0.21020600199699402
          -0.9790070056915283 0.09572300314903259 -0.1799509972333908 -0.8624740242958069 0.025438999757170677 -0.5054619908332825
          -0.9798660278320312 0.07271800190210342 -0.18594500422477722 -0.9332069754600525 0.06046200171113014 0.354216992855072
          -0.852787971496582 -0.1826920062303543 0.4892610013484955 -0.9745690226554871 0.21666400134563446 0.05720100179314613
          -0.9693869948387146 0.17087499797344208 0.17632299661636353 -0.9521790146827698 0.20820899307727814 0.22361800074577332
          -0.9741790294647217 0.19566300511360168 -0.11265599727630615 -0.7483900189399719 -0.26135000586509705 0.6095970273017883
          -0.9416210055351257 -0.06840799748897552 0.3296529948711395 -0.8614799976348877 -0.006568999961018562 0.5077490210533142
          -0.8105900287628174 -0.29803401231765747 0.5041019916534424 -0.5872910022735596 -0.3766289949417114 0.7164080142974854
          -0.8777589797973633 -0.23401400446891785 0.4180630147457123 -0.27565398812294006 -0.4503139853477478 0.8492540121078491
          -0.6723769903182983 0.027271000668406487 -0.7397069931030273 -0.7394070029258728 -0.04895700141787529 -0.6714760065078735
          -0.09486299753189087 -0.0037930000107735395 -0.9954829812049866 -0.03813200071454048 0.025187000632286072 -0.9989550113677979
          -0.4391869902610779 0.04759199917316437 -0.897134006023407 -0.2733069956302643 0.026782000437378883 -0.9615539908409119
          0.057022999972105026 -0.00786499958485365 -0.998341977596283 0.12350499629974365 -0.005113000050187111 -0.9923310279846191
          0.19250799715518951 0.02135000005364418 -0.9810630083084106 0.2068060040473938 0.004129000008106232 -0.9783729910850525
          0.2915619909763336 -0.12330599874258041 -0.9485710263252258 0.16947700083255768 -0.028429999947547913 -0.9851239919662476
          0.1986899971961975 -0.060141000896692276 -0.9782149791717529 0.24733999371528625 -0.14786800742149353 -0.9575790166854858
          0.1692180037498474 -0.36917999386787415 -0.9138230085372925 0.17575199902057648 -0.22179000079631805 -0.9591249823570251
          0.3053230047225952 -0.316210001707077 -0.8982149958610535 0.369581013917923 -0.36576300859451294 -0.8541820049285889
          0.3664039969444275 -0.27885499596595764 -0.8876870274543762 0.5930960178375244 -0.5020599961280823 -0.6294230222702026
          0.7752389907836914 -0.606124997138977 0.17781199514865875 0.8546370267868042 -0.5105990171432495 0.09425900131464005
          0.8820750117301941 -0.47034698724746704 0.026796000078320503 0.812388002872467 -0.5798149704933167 0.0619719997048378
          0.7563599944114685 -0.6516820192337036 0.056836001574993134 0.8084080219268799 -0.549107015132904 0.21203400194644928
          0.7410680055618286 -0.5936740040779114 0.31363898515701294 0.5649290084838867 -0.5131030082702637 -0.6462050080299377
          0.6695150136947632 -0.6407309770584106 -0.3757829964160919 0.7665489912033081 -0.5806990265846252 -0.27420899271965027
          0.5201990008354187 -0.4985150098800659 0.693452000617981 0.635217010974884 -0.4764400124549866 0.607869029045105
          0.6959909796714783 -0.4500429928302765 0.5595160126686096 0.6581779718399048 -0.41516199707984924 0.6280459761619568
          0.5718629956245422 -0.44103699922561646 0.6917070150375366 0.4001150131225586 -0.44147300720214844 0.8031250238418579
          0.7931690216064453 -0.47044000029563904 0.3867430090904236 -0.11034099757671356 -0.44042301177978516 0.8909839987754822
          0.41811200976371765 -0.4168899953365326 0.8070840239524841 0.37793201208114624 -0.4018310010433197 0.834086000919342
          0.08820399641990662 -0.4321720004081726 0.8974670171737671 0.2560740113258362 -0.3891049921512604 0.8848860263824463
          -0.5643560290336609 -0.01541799958795309 -0.8253870010375977 -0.9301909804344177 0.248881995677948 -0.2698200047016144
          -0.9625869989395142 0.2234870046377182 -0.1532289981842041 -0.9740449786186218 0.2254520058631897 0.02016800083220005
          -0.9255719780921936 0.10980500280857086 -0.362296998500824 -0.9840030074119568 0.0902239978313446 -0.15361900627613068
          -0.9849539995193481 0.10536699742078781 -0.13697800040245056 -0.7218949794769287 0.06132199987769127 -0.6892799735069275
          -0.9398499727249146 0.15952900052070618 0.302047997713089 -0.9377610087394714 0.03011300042271614 0.34597501158714294
          -0.6910709738731384 -0.3483960032463074 0.633279025554657 -0.8445180058479309 -0.15392300486564636 0.5129290223121643
          -0.9031130075454712 0.40176698565483093 -0.1515589952468872 -0.8728799819946289 0.4879339933395386 0.0008929999894462526
          -0.9394770264625549 0.30941298604011536 0.14712700247764587 -0.895205020904541 0.44524601101875305 0.019057000055909157
          -0.941340982913971 0.3267650008201599 0.08427499979734421 -0.9450860023498535 0.3034670054912567 0.12132299691438675
          -0.9409670233726501 0.3329789936542511 0.06088599935173988 -0.8994669914245605 0.43614301085472107 -0.02718999981880188
          -0.792339026927948 -0.061354998499155045 0.6069880127906799 -0.6472020149230957 -0.3905700147151947 0.6546639800071716
          -0.2729620039463043 -0.16971899569034576 0.9469360113143921 -0.9176470041275024 0.029505999758839607 0.39629998803138733
          -0.9632959961891174 0.045572999864816666 0.2645449936389923 -0.9332069754600525 0.09013699740171432 0.3478519916534424
          -0.8117039799690247 -0.26545700430870056 0.5202590227127075 -0.7257649898529053 -0.2598080039024353 0.6369969844818115
          -0.6711789965629578 -0.36447998881340027 0.645501971244812 -0.409171998500824 -0.40087199211120605 0.8196830153465271
          0.13107499480247498 0.0496550016105175 -0.9901279807090759 0.12108200043439865 -0.041099999099969864 -0.9917910099029541
          -0.08303000032901764 0.023554999381303787 -0.9962689876556396 -0.03209000080823898 0.0248160008341074 -0.9991769790649414
          -0.029973000288009644 -0.10903500020503998 -0.993586003780365 -0.20131799578666687 0.0068430001847445965 -0.9795020222663879
          0.07738900184631348 -0.09609799832105637 -0.9923589825630188 0.08427999913692474 -0.13556599617004395 -0.9871770143508911
          0.1394129991531372 -0.1780260056257248 -0.9740999937057495 0.35630300641059875 -0.228303000330925 -0.9060490131378174
          0.47283801436424255 -0.35991600155830383 -0.8042920231819153 0.4657509922981262 -0.31566500663757324 -0.8266990184783936
          0.36371898651123047 -0.23414500057697296 -0.9016010165214539 0.8593279719352722 -0.3556370139122009 0.3675299882888794
          0.8809270262718201 -0.40841901302337646 0.23908500373363495 0.8219509720802307 -0.41984501481056213 0.38487300276756287
          0.7846540212631226 -0.6175410151481628 -0.054427001625299454 0.7351160049438477 -0.6507539749145508 0.19006000459194183
          0.7447879910469055 -0.5536260008811951 0.37254399061203003 0.7961050271987915 -0.3680810034275055 0.48034700751304626
          0.6517239809036255 -0.5492309927940369 -0.5230690240859985 0.5531049966812134 -0.366908997297287 -0.7479659914970398
          0.7179039716720581 -0.4788469970226288 -0.5052919983863831 0.7987369894981384 -0.5145360231399536 -0.31188300251960754