<?xml version="1.0"?>
<VTKFile type="PolyData" version="0.1" byte_order="LittleEndian" header_type="UInt32" compressor="vtkZLibDataCompressor">
  <PolyData>
    <Piece NumberOfPoints="198" NumberOfVerts="0" NumberOfLines="0" NumberOfStrips="0" NumberOfPolys="392">
      <PointData Normals="Normals">
        <DataArray type="Float32" Name="Normals" NumberOfComponents="3" format="ascii" RangeMin="0.9999993597492985" RangeMax="1.0000007135921565">
          0.28528499603271484 -0.6078640222549438 0.741021990776062 0.14242100715637207 -0.1933470070362091 0.9707379937171936
          -0.039942000061273575 -0.642454981803894 0.7652810215950012 0.5025609731674194 -0.3680259883403778 0.7822970151901245
          0.037071000784635544 -0.9092230200767517 0.41465601325035095 0.4553860127925873 -0.7979400157928467 0.39486101269721985
          0.4340980052947998 0.2239910066127777 0.8725749850273132 0.001626000041142106 0.32023000717163086 0.9473379850387573
          -0.5136839747428894 -0.07062699645757675 0.8550670146942139 -0.40147900581359863 -0.7444080114364624 0.533545970916748
          0.8051400184631348 0.2267799973487854 0.5480139851570129 0.869176983833313 -0.38988301157951355 0.30417400598526
          -0.1735910028219223 -0.9115390181541443 0.3727779984474182 0.16878700256347656 -0.9851260185241699 0.032214999198913574
          0.6801440119743347 -0.7281979918479919 -0.0844459980726242 0.7589139938354492 0.4580020010471344 0.4629090130329132
          0.41363298892974854 0.4607059955596924 0.7852749824523926 -0.0751660019159317 0.30476099252700806 0.9494580030441284
          0.39548200368881226 0.369841992855072 0.8407210111618042 -0.5635989904403687 0.18203899264335632 0.805741012096405
          -0.9472110271453857 0.02285500057041645 0.31979501247406006 -0.6882789731025696 -0.4861229956150055 0.5384759902954102
          0.8724420070648193 0.4882790148258209 0.020702999085187912 0.9158089756965637 0.3592120110988617 0.17961500585079193
          0.8889690041542053 -0.19993700087070465 -0.4120190143585205 0.9661539793014526 0.1789039969444275 -0.18585200607776642
          -0.0889270007610321 -0.7698969841003418 0.6319419741630554 0.2252340018749237 -0.9587609767913818 0.17334400117397308
          0.4602780044078827 -0.8591870069503784 -0.22347800433635712 0.2479880005121231 -0.735958993434906 -0.6299740076065063
          0.230444997549057 -0.8432620167732239 -0.48559701442718506 0.6747450232505798 -0.2780979871749878 -0.6836529970169067
          0.8734520077705383 0.24629800021648407 0.42002400755882263 0.9539859890937805 0.296220988035202 -0.046509999781847
          0.3437100052833557 0.2151080071926117 0.9141070246696472 -0.38283300399780273 0.1510320007801056 0.9113879799842834
          0.5098720192909241 0.2869020104408264 0.8109980225563049 -0.952239990234375 0.010258999653160572 0.30517899990081787
          -0.9785100221633911 0.03591400012373924 0.2030480057001114 -0.6037669777870178 -0.14558400213718414 0.7837539911270142
          -0.6818850040435791 -0.1272989958524704 -0.7202969789505005 -0.7711349725723267 -0.11067300289869308 -0.6269789934158325
          -0.7294729948043823 -0.2672710120677948 0.629630982875824 0.8741599917411804 0.4274600148200989 -0.23048099875450134
          0.7877629995346069 0.24065199494361877 -0.567022979259491 -0.04745199903845787 -0.7972450256347656 0.6017879843711853
          0.5205339789390564 -0.842303991317749 0.13988499343395233 -0.007927999831736088 -0.19779899716377258 -0.9802110195159912
          0.023161999881267548 -0.5838969945907593 -0.8114969730377197 0.5218889713287354 -0.8018789887428284 -0.29089900851249695
          0.6821029782295227 -0.01594799943268299 -0.731082022190094 0.8478170037269592 0.1727299988269806 0.50136798620224
          0.9329879879951477 0.04937899857759476 -0.35650399327278137 0.9931470155715942 0.0510299988090992 -0.10514499992132187
          0.851705014705658 0.12881700694561005 -0.5079420208930969 0.8361930251121521 0.11714600026607513 0.5357779860496521
          -0.06586799770593643 0.10406199842691422 0.9923869967460632 -0.9089239835739136 -0.012613000348210335 0.41677001118659973
          -0.8479340076446533 -0.10837399959564209 -0.5189059972763062 -0.9621019959449768 -0.2258480042219162 0.1528179943561554
          0.04411099851131439 -0.998753011226654 0.02338699996471405 -0.7305949926376343 -0.6409639716148376 -0.23536600172519684
          -0.40296700596809387 -0.16605600714683533 -0.9000239968299866 0.1589449942111969 -0.1749649941921234 -0.9716600179672241
          0.7952650189399719 -0.06522800028324127 -0.6027420163154602 0.7932469844818115 -0.05116000026464462 -0.6067469716072083
          0.7922689914703369 0.03915800154209137 0.6089140176773071 -0.3157530128955841 0.0033050000201910734 0.9488360285758972
          -0.9468830227851868 -0.041067998856306076 0.3189440071582794 -0.8575639724731445 -0.05307599902153015 -0.5116310119628906
          -0.6590309739112854 -0.10644099861383438 -0.7445449829101562 -0.21480900049209595 -0.1318189948797226 -0.9677190184593201
          0.35582301020622253 -0.16627000272274017 -0.9196439981460571 0.07605499774217606 -0.14108000695705414 -0.9870730042457581
          0.6827509999275208 -0.031463999301195145 -0.7299730181694031 0.7784960269927979 0.018685000017285347 0.6273710131645203
          -0.7772430181503296 -0.026776999235153198 0.6286299824714661 -0.28773701190948486 -0.06442099809646606 -0.9555400013923645
          -0.5639140009880066 -0.031328000128269196 -0.8252390027046204 -0.865759015083313 -0.014543999917805195 -0.5002509951591492
          -0.5187010169029236 -0.11859600245952606 -0.8466910123825073 0.39566799998283386 -0.004997999873012304 -0.9183800220489502
          0.6423500180244446 -0.032242998480796814 0.765733003616333 -0.6426529884338379 0.004896999802440405 0.7661420106887817
          -0.3794969916343689 -0.021647000685334206 -0.9249399900436401 -0.31426501274108887 -0.06834299862384796 -0.9468719959259033
          -0.4042479991912842 -0.09616299718618393 -0.9095799922943115 -0.835224986076355 -0.044286999851465225 -0.5481209754943848
          -0.8757929801940918 0.08156099915504456 0.47574499249458313 0.6467769742012024 -0.10132499784231186 -0.7559189796447754
          0.803583025932312 -0.09047199785709381 0.5882769823074341 -0.011423000134527683 0.013647999614477158 0.9998419880867004
          -0.25856998562812805 0.05475100129842758 0.9644399881362915 0.3169209957122803 -0.15909600257873535 -0.9350129961967468
          0.44177499413490295 -0.3012149930000305 -0.8450469970703125 -0.6174939870834351 -0.11788000166416168 -0.7776920199394226
          -0.2999350130558014 -0.17629499733448029 -0.9375280141830444 -0.9947599768638611 0.011645999737083912 -0.10157500207424164
          -0.4245840013027191 0.22188800573349 0.8777779936790466 -0.7947390079498291 0.09296499937772751 0.5997899770736694
          0.9360979795455933 -0.2077060043811798 -0.2838659882545471 0.45607200264930725 -0.19600999355316162 0.8680890202522278
          0.9511370062828064 -0.29565000534057617 0.08904600143432617 -0.20123499631881714 -0.08130300045013428 0.9761630296707153
          -0.3635540008544922 0.16229599714279175 0.9173269867897034 0.7632179856300354 -0.48612499237060547 -0.42565199732780457
          0.08424399793148041 -0.3843750059604645 -0.9193249940872192 -0.5040209889411926 -0.25225499272346497 -0.8260329961776733
          -0.7806059718132019 -0.165926992893219 -0.6025959849357605 -0.9946290254592896 0.030388999730348587 0.09894199669361115
          -0.02675599977374077 0.3697130084037781 0.9287610054016113 -0.6271060109138489 0.03699500113725662 0.7780550122261047
          -0.2283399999141693 0.447394996881485 0.8646960258483887 -0.2671769857406616 0.005160000175237656 0.9636340141296387
          0.3745709955692291 0.21747000515460968 0.9013339877128601 0.029053999111056328 0.33933401107788086 0.9402170181274414
          -0.9883430004119873 0.053640998899936676 0.14248399436473846 0.4854600131511688 -0.07841899991035461 0.8707349896430969
          0.8808299899101257 -0.4626869857311249 0.10030099749565125 0.779682993888855 -0.15139900147914886 0.6075950264930725
          0.5948730111122131 0.15459999442100525 0.788811981678009 0.08550500124692917 -0.6809369921684265 -0.7273330092430115
          0.6718119978904724 -0.7184579968452454 -0.18024000525474548 -0.5779669880867004 -0.348814994096756 -0.7377550005912781
          -0.8067560195922852 -0.3269279897212982 -0.4922020137310028 -0.66975998878479 -0.4268159866333008 -0.6076599955558777
          -0.851498007774353 0.08465000241994858 -0.5174790024757385 -0.45938798785209656 -0.2202650010585785 -0.8604919910430908
          -0.5226730108261108 0.08377499878406525 -0.848406970500946 0.4921950101852417 0.3212200105190277 0.8090500235557556
          -0.43103599548339844 0.1476839929819107 0.8901669979095459 -0.8394700288772583 0.1733729988336563 0.5150060057640076
          0.7287499904632568 0.574970006942749 0.3719319999217987 0.9649900197982788 0.18979500234127045 0.1810300052165985
          0.4593859910964966 0.03996200114488602 0.8873370289802551 0.6013820171356201 0.4536130130290985 0.6577050089836121
          -0.8787019848823547 0.40676799416542053 -0.24984699487686157 -0.7520080208778381 0.5967980027198792 0.2798520028591156
          0.750980019569397 -0.6473919749259949 0.130048006772995 0.7783210277557373 -0.4250760078430176 0.46208998560905457
          0.5406090021133423 0.1758510023355484 0.8226900100708008 -0.08223199844360352 -0.5054500102996826 -0.8589289784431458
          0.1370600014925003 -0.582368016242981 -0.8012880086898804 0.19399499893188477 -0.7559139728546143 -0.6252679824829102
          0.690526008605957 0.48430100083351135 -0.5372390151023865 0.8591240048408508 0.49935999512672424 0.11200399696826935
          0.7219560146331787 -0.3021889925003052 -0.6224629878997803 0.6667479872703552 0.38006100058555603 0.6410940289497375
          -0.5853170156478882 -0.2944909930229187 -0.7554330229759216 -0.6967509984970093 0.04728500172495842 -0.7157530188560486
          -0.45817500352859497 -0.12370099872350693 -0.8802120089530945 -0.6342899799346924 0.45892900228500366 -0.6221420168876648
          -0.0021720000077039003 -0.07888399809598923 -0.9968810081481934 0.005381000228226185 0.13180899620056152 -0.9912599921226501
          -0.3593960106372833 0.5731409788131714 -0.7364400029182434 -0.25971201062202454 0.629285991191864 0.7324950098991394
          0.9196439981460571 0.3924129903316498 0.01633100025355816 0.7366859912872314 0.6720520257949829 -0.07509800046682358
          0.3619759976863861 0.8508909940719604 0.380731999874115 0.41267600655555725 0.8531309962272644 0.3191649913787842
          0.9391890168190002 -0.28451699018478394 0.1922840029001236 0.9319869875907898 0.10413199663162231 -0.3472119867801666
          0.4221529960632324 -0.02382900007069111 0.9062110185623169 0.5090579986572266 0.5836690068244934 0.632606029510498
          -0.5320510268211365 0.8191050291061401 -0.21445000171661377 -0.09467600286006927 0.9714069962501526 0.2177249938249588
          0.5217949748039246 0.35698598623275757 -0.7747840285301208 0.4862099885940552 0.2680110037326813 -0.8317270278930664
          0.440187007188797 0.6340169906616211 -0.6358129978179932 0.40602201223373413 0.8826860189437866 -0.2366659939289093
          0.3398120105266571 0.8652009963989258 -0.36872100830078125 0.02739099971950054 0.1969899982213974 -0.9800230264663696
          -0.5031780004501343 0.30399900674819946 -0.8089479804039001 0.34332698583602905 0.6335870027542114 -0.6933209896087646
          0.25908398628234863 0.8211699724197388 -0.5084840059280396 0.013403000310063362 0.4175199866294861 -0.9085689783096313
          0.63925701379776 0.12081500142812729 -0.7594429850578308 0.6066970229148865 0.2868950068950653 -0.7413570284843445
          0.02694699913263321 0.6099069714546204 -0.792015016078949 -0.09642300009727478 0.929049015045166 -0.3571690022945404
          0.5057209730148315 0.17025800049304962 0.8457300066947937 0.8140320181846619 0.34279799461364746 -0.4688720107078552
          0.5483480095863342 0.8362280130386353 -0.006089000031352043 0.7323430180549622 0.4230780005455017 -0.5335519909858704
          0.5769619941711426 0.6043409705162048 -0.5494419932365417 0.9078530073165894 -0.2039639949798584 -0.3663339912891388
          0.6964470148086548 -0.7062199711799622 0.1273380070924759 0.410768985748291 0.8824229836463928 -0.2293419986963272
          0.5518699884414673 0.8246700167655945 0.12393400073051453 0.4154289960861206 0.7853019833564758 0.4590420126914978
          0.7698799967765808 0.5814300179481506 -0.26310300827026367 0.5613189935684204 0.685280978679657 -0.46401599049568176
          0.5908970236778259 0.4797149896621704 -0.6486250162124634 0.8711580038070679 0.15699900686740875 -0.4652259945869446
          0.7954959869384766 -0.509555995464325 -0.3279309868812561 0.815090000629425 -0.03957400098443031 0.5779809951782227
          0.6708890199661255 0.49493199586868286 -0.5522230267524719 0.9926859736442566 -0.10199800133705139 0.06458699703216553
          <InformationKey name="L2_NORM_RANGE" location="vtkDataArray" length="2">
            <Value index="0">
              0.99999935975
            </Value>
            <Value index="1">
              1.0000007136
            </Value>
          </InformationKey>
        </DataArray>
      </PointData>
      <CellData>
      </CellData>
      <Points>
        <DataArray type="Float32" Name="Points" NumberOfComponents="3" format="ascii" RangeMin="0.012435930170827504" RangeMax="0.24726018133359276">
          -0.01960200071334839 -0.23895999789237976 0.03021099977195263 -0.020597999915480614 -0.23662300407886505 0.031491998583078384
          -0.020795999094843864 -0.2387859970331192 0.030618999153375626 -0.01500099990516901 -0.23722200095653534 0.02915100008249283
          -0.01954999938607216 -0.24030399322509766 0.02836799994111061 -0.014826999977231026 -0.2394469976425171 0.02685300074517727
          -0.01659199967980385 -0.2341729998588562 0.030639000236988068 -0.02007400058209896 -0.234607994556427 0.03125400096178055
          -0.022461000829935074 -0.2372879981994629 0.031144000589847565 -0.0229250006377697 -0.2392279952764511 0.029231000691652298
          -0.013505999930202961 -0.23477399349212646 0.028364000841975212 -0.012866999953985214 -0.23764599859714508 0.02680099941790104
          -0.023959999904036522 -0.24026699364185333 0.02600100077688694 -0.01809299923479557 -0.2412479966878891 0.02314000017940998
          -0.014127000235021114 -0.23937399685382843 0.023569999262690544 -0.01634800061583519 -0.22936800122261047 0.026165999472141266
          -0.018682999536395073 -0.2288919985294342 0.028238000348210335 -0.022285999730229378 -0.22107499837875366 0.02528800070285797
          -0.019655000418424606 -0.2230139970779419 0.025690000504255295 -0.024438999593257904 -0.21826699376106262 0.023754000663757324
          -0.028751999139785767 -0.23130500316619873 0.02122100070118904 -0.024535000324249268 -0.239315003156662 0.02709200046956539
          -0.014434999786317348 -0.23294000327587128 0.026270000264048576 -0.012707999907433987 -0.2353059947490692 0.027117999270558357
          -0.01435100007802248 -0.23847299814224243 0.021052999421954155 -0.01232299953699112 -0.23594799637794495 0.025752000510692596
          -0.024932999163866043 -0.24071000516414642 0.02489900030195713 -0.022665999829769135 -0.24168699979782104 0.022192999720573425
          -0.016326000913977623 -0.2405959963798523 0.021019000560045242 -0.018459999933838844 -0.24048300087451935 0.018616000190377235
          -0.02184000052511692 -0.24043400585651398 0.018637999892234802 -0.015434999950230122 -0.2392520010471344 0.01992099918425083
          -0.01954299956560135 -0.2177180051803589 0.02339399978518486 -0.015420000068843365 -0.2304230034351349 0.02410699985921383
          -0.021124999970197678 -0.2078309953212738 0.021445000544190407 -0.024981999769806862 -0.20513199269771576 0.021004000678658485
          -0.02065099962055683 -0.21479399502277374 0.023242000490427017 -0.028787000104784966 -0.20095199346542358 0.017312999814748764
          -0.029738999903202057 -0.23792099952697754 0.02179899998009205 -0.02653999999165535 -0.24042899906635284 0.023771999403834343
          -0.028133999556303024 -0.23882800340652466 0.019600000232458115 -0.027224000543355942 -0.22315800189971924 0.0168869998306036
          -0.025774000212550163 -0.2398339956998825 0.024886999279260635 -0.01432500034570694 -0.23416900634765625 0.023413000628352165
          -0.01471100002527237 -0.23478800058364868 0.02185799926519394 -0.027108000591397285 -0.2446179986000061 0.021918000653386116
          -0.023747999221086502 -0.24226200580596924 0.022190000861883163 -0.02309500053524971 -0.23141199350357056 0.015459000132977962
          -0.02676899917423725 -0.24330799281597137 0.020364999771118164 -0.024744000285863876 -0.24285200238227844 0.02165899984538555
          -0.02122800052165985 -0.2291949987411499 0.0164560005068779 -0.019493000581860542 -0.21448299288749695 0.021724000573158264
          -0.018964000046253204 -0.21645599603652954 0.017596999183297157 -0.019068999215960503 -0.21297499537467957 0.018276000395417213
          -0.01749500073492527 -0.2273399978876114 0.020382000133395195 -0.020392000675201416 -0.19295300543308258 0.017966000363230705
          -0.02601500041782856 -0.17527799308300018 0.016865000128746033 -0.03045699931681156 -0.18036599457263947 0.014461000449955463
          -0.029059000313282013 -0.18942999839782715 0.011869999580085278 -0.029498999938368797 -0.24092599749565125 0.021762000396847725
          -0.027493000030517578 -0.24477699398994446 0.02158600091934204 -0.02807299979031086 -0.2445800006389618 0.02132900059223175
          -0.025839999318122864 -0.20510900020599365 0.011769999749958515 -0.02304299920797348 -0.2167939990758896 0.013247000053524971
          -0.020210999995470047 -0.2161320000886917 0.015706999227404594 -0.021529000252485275 -0.18945200741291046 0.009696999564766884
          -0.02028300054371357 -0.17532700300216675 0.016093000769615173 -0.029231999069452286 -0.13488399982452393 0.01498700026422739
          -0.03182600066065788 -0.15244899690151215 0.012842999771237373 -0.030633000656962395 -0.1519480049610138 0.009064000099897385
          -0.02827399969100952 -0.17589899897575378 0.008899999782443047 -0.02542700059711933 -0.18093900382518768 0.007885999977588654
          -0.02236800082027912 -0.2090419977903366 0.011932999826967716 -0.023365000262856483 -0.19731399416923523 0.00976100005209446
          -0.022123999893665314 -0.1804019957780838 0.008603000082075596 -0.01957399956882 -0.12641699612140656 0.016750000417232513
          -0.03376900032162666 -0.10765799880027771 0.014034000225365162 -0.026048999279737473 -0.16627700626850128 0.0065460000187158585
          -0.028934000059962273 -0.12617899477481842 0.005644000135362148 -0.03324799984693527 -0.07240000367164612 0.008988000452518463
          -0.026889000087976456 -0.1759749948978424 0.0077320002019405365 -0.026336999610066414 -0.1264359951019287 0.004772999789565802
          -0.021581999957561493 -0.09245499968528748 0.01693199947476387 -0.033392999321222305 -0.07225199788808823 0.015033000148832798
          -0.028977999463677406 -0.09586799889802933 0.005336000118404627 -0.027031000703573227 -0.06468400359153748 0.0031210000161081553
          -0.026138000190258026 -0.05552000179886818 0.0019710001070052385 -0.03152399882674217 -0.04941000044345856 0.006074000149965286
          -0.03366300091147423 -0.04805399850010872 0.01283199992030859 -0.025383999571204185 -0.08266499638557434 0.004606000147759914
          -0.019819000735878944 -0.04942699894309044 0.01432000007480383 -0.02636599913239479 -0.07338999956846237 0.017235999926924706
          -0.024396000429987907 -0.03567900136113167 0.015301000326871872 -0.023686999455094337 -0.060506001114845276 0.0023360000923275948
          -0.019652999937534332 -0.03387200087308884 -0.0020550000481307507 -0.029020000249147415 -0.028620999306440353 0.0012080000014975667
          -0.020441999658942223 -0.03048500046133995 -0.0024880000855773687 -0.03384900093078613 -0.02914699912071228 0.008477999828755856
          -0.022678999230265617 -0.015031999908387661 0.012608000077307224 -0.0318400003015995 -0.013942999765276909 0.007829000242054462
          -0.021402999758720398 -0.06048300117254257 0.006138999946415424 -0.018782999366521835 -0.03596999868750572 0.014410999603569508
          -0.01381599996238947 -0.032290998846292496 0.005963999778032303 -0.021578000858426094 -0.02845199964940548 0.01657800003886223
          -0.019979000091552734 -0.02011900022625923 0.0162579994648695 -0.013392000459134579 -0.028891999274492264 0.003046999918296933
          -0.018185000866651535 -0.02851800061762333 -0.003645000047981739 -0.01722699962556362 -0.022115999832749367 -0.005778999999165535
          -0.03234900161623955 -0.010487999767065048 0.0002500000118743628 -0.03258899971842766 -0.013376000337302685 0.004695000126957893
          -0.01915000006556511 -0.017595000565052032 0.015859000384807587 -0.03142800182104111 -0.008476000279188156 0.00762399984523654
          -0.020440999418497086 -0.014538000337779522 0.013624999672174454 -0.028241999447345734 -0.004526000004261732 0.009126000106334686
          -0.01896500028669834 -0.005311000160872936 0.010491999797523022 -0.01954299956560135 -0.009185999631881714 0.01144300028681755
          -0.03294600173830986 -0.00597199983894825 0.004769999999552965 -0.017704999074339867 -0.02798300050199032 0.016939999535679817
          -0.011664999648928642 -0.02699200063943863 0.00570600014179945 -0.015340999700129032 -0.02510800026357174 0.012788999825716019
          -0.019107000902295113 -0.02010500058531761 0.016263000667095184 -0.015123000368475914 -0.02118699997663498 -0.007333000190556049
          -0.008430000394582748 -0.020093999803066254 -0.0006249999860301614 -0.022818999364972115 -0.006852999795228243 -0.006341000087559223
          -0.017539000138640404 -0.014239000156521797 -0.007486999966204166 -0.01596600003540516 -0.015150000341236591 -0.01193699985742569
          -0.030837999656796455 0.0028520000632852316 -0.005241999868303537 -0.025067999958992004 0.00042799999937415123 -0.009045000188052654
          -0.027525000274181366 0.004236000124365091 -0.007977000437676907 -0.018422000110149384 -0.013411999680101871 0.013000999577343464
          -0.02653999999165535 0.003071000101044774 0.010626999661326408 -0.03175099939107895 -0.0014479999663308263 0.006432000081986189
          -0.014484000392258167 -0.010425000451505184 0.005489000119268894 -0.01445700041949749 -0.0023590000346302986 -0.0022040000185370445
          -0.020519999787211418 0.005925000179558992 0.011208999902009964 -0.015873000025749207 -0.011001000180840492 0.01077600009739399
          -0.03153900057077408 0.00698000006377697 -0.001610000035725534 -0.031183000653982162 0.007354999892413616 0.0015490000369027257
          -0.009840999729931355 -0.02371099963784218 0.006194000132381916 -0.007114999927580357 -0.02140899933874607 0.007373000029474497
          -0.012733999639749527 -0.02163100056350231 0.009491000324487686 -0.013942000456154346 -0.015154999680817127 -0.012941000051796436
          -0.012795000337064266 -0.016574999317526817 -0.011521000415086746 -0.008620000444352627 -0.016937000676989555 -0.01118400041013956
          -0.0017170000355690718 -0.014774000272154808 -0.004354000091552734 -0.0006900000153109431 -0.012361999601125717 0.0011650000233203173
          -0.005007999949157238 -0.015836000442504883 -0.01090999972075224 -0.002102999947965145 -0.01382800005376339 0.004726999904960394
          -0.021425999701023102 -0.005869999993592501 -0.008969999849796295 -0.018689999356865883 -0.00954699981957674 -0.010447000153362751
          -0.015887999907135963 -0.012520000338554382 -0.013333000242710114 -0.028156999498605728 0.007003000006079674 -0.006320000160485506
          -0.021839000284671783 -0.0017989999614655972 -0.009650999680161476 -0.021893000230193138 0.004189999774098396 -0.010036000050604343
          -0.024070000275969505 0.009057000279426575 -0.007747999858111143 -0.01996699906885624 0.010835999622941017 0.009841999970376492
          -0.013644999824464321 -0.005001000128686428 -0.002483000047504902 -0.011884000152349472 -0.007586000021547079 -0.0025839998852461576
          -0.011257999576628208 -0.010490999557077885 0.002196999965235591 -0.01230200007557869 -0.011907000094652176 0.005266999825835228
          -0.014667999930679798 0.0029150000773370266 -0.0012890000361949205 -0.015426999889314175 -0.00013800000306218863 -0.004546999931335449
          -0.018332000821828842 0.00973500031977892 0.01054999977350235 -0.013302999548614025 -0.012242999859154224 0.009031999856233597
          -0.028565000742673874 0.009398000314831734 -0.002816000021994114 -0.015967000275850296 0.013787000440061092 0.0055610002018511295
          -0.013026000000536442 -0.012884000316262245 -0.013620000332593918 -0.0059460001066327095 -0.01575700007379055 -0.011621000245213509
          -0.007488999981433153 -0.012217000126838684 -0.004064000211656094 -0.006763000041246414 -0.010966000147163868 -0.001673000049777329
          -0.008438999764621258 -0.013770000077784061 -0.005841999780386686 -0.02047000080347061 -0.004910999909043312 -0.009438999928534031
          -0.016976000741124153 -0.010010999627411366 -0.0123070003464818 -0.016777999699115753 -0.007853000424802303 -0.010240999981760979
          -0.015961000695824623 -0.009092999622225761 -0.012249000370502472 -0.014779999852180481 -0.010606000199913979 -0.01332200039178133
          -0.018195999786257744 -0.0028959999326616526 -0.008100000210106373 -0.014468000270426273 0.011354999616742134 -0.006510999985039234
          -0.017573999240994453 0.012014999985694885 -0.006907000206410885 -0.018605999648571014 0.01346299983561039 -0.004778999835252762
          -0.015603000298142433 0.011397000402212143 0.009114000014960766 -0.01381599996238947 -0.005530000198632479 -0.0038960000965744257
          -0.00952600035816431 -0.009619999676942825 -0.0021959999576210976 -0.016502000391483307 -0.006231000181287527 -0.00803999975323677
          -0.01158900000154972 -0.009398999623954296 -0.004906999878585339 -0.014995000325143337 0.004075000062584877 -0.004556000232696533
          -0.011750999838113785 0.009658999741077423 0.000699999975040555 -0.013313000090420246 0.01338099967688322 -0.0024840000551193953
          -0.011656000278890133 0.013136999681591988 0.00266400002874434 -0.013446000404655933 0.013086000457406044 0.0061690001748502254
          -0.015386000275611877 -0.009728999808430672 -0.009700999595224857 -0.01144300028681755 -0.01295899972319603 -0.007524999789893627
          -0.01733900047838688 -0.006151000037789345 -0.00915099959820509 -0.010490999557077885 0.011122000403702259 -0.002263000002130866
          -0.013577999547123909 0.007945000194013119 -0.0038819999899715185 -0.011629000306129456 0.011343000456690788 0.005950000137090683
          -0.013544999994337559 -0.010499999858438969 -0.007060999982059002 -0.009762999601662159 0.010873000137507915 0.0015800000401213765
          <InformationKey name="L2_NORM_RANGE" location="vtkDataArray" length="2">
            <Value index="0">
              0.012435930171
            </Value>
            <Value index="1">
              0.24726018133
            </Value>
          </InformationKey>
        </DataArray>
      </Points>
      <Verts>
        <DataArray type="Int64" Name="connectivity" format="ascii" RangeMin="1e+299" RangeMax="-1e+299">
        </DataArray>
        <DataArray type="Int64" Name="offsets" format="ascii" RangeMin="1e+299" RangeMax="-1e+299">
        </DataArray>
      </Verts>
      <Lines>
        <DataArray type="Int64" Name="connectivity" format="ascii" RangeMin="1e+299" RangeMax="-1e+299">
        </DataArray>
        <DataArray type="Int64" Name="offsets" format="ascii" RangeMin="1e+299" RangeMax="-1e+299">
        </DataArray>
      </Lines>
      <Strips>
        <DataArray type="Int64" Name="connectivity" format="ascii" RangeMin="1e+299" RangeMax="-1e+299">
        </DataArray>
        <DataArray type="Int64" Name="offsets" format="ascii" RangeMin="1e+299" RangeMax="-1e+299">
        </DataArray>
      </Strips>
      <Polys>
        <DataArray type="Int32" Name="connectivity" format="ascii" RangeMin="0" RangeMax="197">
          0 1 2 1 0 3
          0 2 4 3 0 5
          0 4 5 1 3 6
          7 1 6 7 8 1
          1 8 2 9 4 2
          9 2 8 10 6 3
          11 10 3 11 3 5
          12 4 9 4 13 5
          12 13 4 14 11 5
          5 13 14 6 15 16
          15 6 10 16 7 6
          17 8 7 17 7 18
          16 18 7 19 8 17
          8 19 20 21 8 20
          8 21 9 9 21 12
          15 10 22 10 23 22
          10 11 23 14 24 11
          24 25 11 11 25 23
          12 21 26 12 26 27
          12 27 13 14 13 28
          29 13 30 13 29 28
          27 30 13 28 31 14
          31 24 14 32 18 15
          16 15 18 15 22 33
          32 15 33 34 35 17
          36 17 18 36 34 17
          19 17 35 18 32 36
          35 37 19 19 37 20
          20 38 39 38 20 40
          20 37 41 42 21 20
          39 42 20 41 40 20
          26 21 42 22 23 43
          43 33 22 25 43 23
          44 24 31 24 44 25
          25 44 43 45 46 26
          45 26 42 27 26 46
          46 30 27 31 28 29
          30 47 29 31 29 47
          48 30 49 30 48 47
          49 30 46 50 31 47
          31 50 44 36 32 51
          33 52 32 52 53 32
          53 51 32 33 43 54
          33 54 52 36 51 34
          51 55 34 34 55 56
          56 35 34 56 57 35
          37 35 57 57 58 37
          41 37 58 59 39 38
          38 40 59 45 42 39
          39 60 45 39 59 61
          39 61 60 40 41 47
          40 61 59 40 48 61