<?xml version="1.0"?>
<VTKFile type="PolyData" version="0.1" byte_order="LittleEndian" header_type="UInt32" compressor="vtkZLibDataCompressor">
  <PolyData>
    <Piece NumberOfPoints="198" NumberOfVerts="0" NumberOfLines="0" NumberOfStrips="0" NumberOfPolys="392">
      <PointData Normals="Normals">
        <DataArray type="Float32" Name="Normals" NumberOfComponents="3" format="ascii" RangeMin="0.9999993408195617" RangeMax="1.000000692471327">
          0.28527599573135376 -0.6078590154647827 -0.7410299777984619 0.142426997423172 -0.19335700571537018 -0.9707350134849548
          -0.03994400054216385 -0.6424520015716553 -0.76528400182724 0.5025629997253418 -0.3680190145969391 -0.7822989821434021
          0.037067998200654984 -0.9092230200767517 -0.41465499997138977 0.4553869962692261 -0.7979410290718079 -0.3948580026626587
          0.4341050088405609 0.2239840030670166 -0.8725730180740356 0.0016479999758303165 0.3202179968357086 -0.9473429918289185
          -0.5136749744415283 -0.07063599675893784 -0.855072021484375 -0.4014819860458374 -0.74440598487854 -0.5335469841957092
          0.8051409721374512 0.22677700221538544 -0.5480139851570129 0.8691710233688354 -0.3898879885673523 -0.30418598651885986
          -0.17360499501228333 -0.9115369915962219 -0.37277698516845703 0.16878099739551544 -0.9851269721984863 -0.032214999198913574
          0.6801440119743347 -0.7282000184059143 0.0844390019774437 0.758916974067688 0.45799800753593445 -0.462907999753952
          0.41364800930023193 0.4607039988040924 -0.7852680087089539 -0.07516299933195114 0.30476298928260803 -0.9494580030441284
          0.39548999071121216 0.369841992855072 -0.8407170176506042 -0.5635889768600464 0.18204399943351746 -0.8057460188865662
          -0.9472100138664246 0.02285199984908104 -0.31979799270629883 -0.6882799863815308 -0.48612499237060547 -0.5384730100631714
          0.8724439740180969 0.4882749915122986 -0.020711999386548996 0.9158009886741638 0.35921600461006165 -0.17964600026607513
          0.8889709711074829 -0.19993600249290466 0.4120140075683594 0.966156005859375 0.17890499532222748 0.18583600223064423
          -0.08892499655485153 -0.7699009776115417 -0.6319379806518555 0.22521600127220154 -0.9587669968605042 -0.17333200573921204
          0.46026501059532166 -0.8591960072517395 0.22346800565719604 0.24797199666500092 -0.7359640002250671 0.6299740076065063
          0.230444997549057 -0.8432599902153015 0.485601007938385 0.6747469902038574 -0.278095006942749 0.6836519837379456
          0.8734480142593384 0.2463030070066452 -0.4200280010700226 0.9539870023727417 0.29622000455856323 0.04650599882006645
          0.34369999170303345 0.2151069939136505 -0.9141110181808472 -0.3828299939632416 0.15103399753570557 -0.9113889932632446
          0.5098680257797241 0.2869020104408264 -0.8110010027885437 -0.952235996723175 0.010262000374495983 -0.30518999695777893
          -0.9785100221633911 0.035916998982429504 -0.20304900407791138 -0.6037650108337402 -0.1455879956483841 -0.7837550044059753
          -0.6818860173225403 -0.12729400396347046 0.7202969789505005 -0.7711330056190491 -0.11067400127649307 0.6269810199737549
          -0.7294579744338989 -0.2672879993915558 -0.6296409964561462 0.8741599917411804 0.42746400833129883 0.23047800362110138
          0.7877600193023682 0.24064800143241882 0.5670289993286133 -0.04741299897432327 -0.7972139716148376 -0.6018319725990295
          0.5205199718475342 -0.8423100113868713 -0.13990700244903564 -0.007931999862194061 -0.19779899716377258 0.9802110195159912
          0.023176999762654305 -0.5839070081710815 0.811489999294281 0.5219100117683411 -0.8018919825553894 0.2908250093460083
          0.6820979714393616 -0.015948999673128128 0.7310870289802551 0.8478080034255981 0.1727370023727417 -0.501380980014801
          0.9329879879951477 0.049375999718904495 0.35650500655174255 0.9931470155715942 0.05103300139307976 0.10514199733734131
          0.8517019748687744 0.12881599366664886 0.5079470276832581 0.8361889719963074 0.11714699864387512 -0.5357840061187744
          -0.06587900221347809 0.10406100004911423 -0.9923869967460632 -0.9089229702949524 -0.012612000107765198 -0.4167740046977997
          -0.8479340076446533 -0.1083730012178421 0.5189059972763062 -0.9621059894561768 -0.22583700716495514 -0.1528089940547943
          0.04414999857544899 -0.9987490177154541 -0.023486999794840813 -0.7305930256843567 -0.6409670114517212 0.23536300659179688
          -0.40296798944473267 -0.16605700552463531 0.9000229835510254 0.15893800556659698 -0.1749649941921234 0.9716609716415405
          0.7952600121498108 -0.06523100286722183 0.6027489900588989 0.7932450175285339 -0.05116099864244461 0.6067500114440918
          0.792264997959137 0.03915800154209137 -0.6089199781417847 -0.3157559931278229 0.00330400001257658 -0.948835015296936
          -0.9468849897384644 -0.041067998856306076 -0.3189390003681183 -0.8575609922409058 -0.05307599902153015 0.5116369724273682
          -0.6590350270271301 -0.10644300282001495 0.7445420026779175 -0.21481099724769592 -0.13181999325752258 0.9677190184593201
          0.3558160066604614 -0.16627199947834015 0.9196460247039795 0.07605300098657608 -0.14108100533485413 0.9870719909667969
          0.6827509999275208 -0.03146300092339516 0.7299739718437195 0.7784950137138367 0.018685000017285347 -0.6273720264434814
          -0.7772430181503296 -0.026776999235153198 -0.6286299824714661 -0.28773900866508484 -0.06441999971866608 0.9555400013923645
          -0.5639150142669678 -0.031328000128269196 0.8252379894256592 -0.8657569885253906 -0.014543999917805195 0.5002530217170715
          -0.5187069773674011 -0.11859899759292603 0.8466860055923462 0.39566299319267273 -0.004997999873012304 0.9183819890022278
          0.6423490047454834 -0.03224100172519684 -0.7657340168952942 -0.6426489949226379 0.004898999817669392 -0.7661449909210205
          -0.3794949948787689 -0.021648000925779343 0.9249410033226013 -0.31425899267196655 -0.06834500283002853 0.9468740224838257
          -0.40425100922584534 -0.09616199880838394 0.9095789790153503 -0.8352259993553162 -0.044286999851465225 0.5481209754943848
          -0.8757929801940918 0.08156099915504456 -0.4757469892501831 0.6467790007591248 -0.10132600367069244 0.7559170126914978
          0.8035799860954285 -0.09047099947929382 -0.588280975818634 -0.01142400037497282 0.013650000095367432 -0.9998419880867004
          -0.2585740089416504 0.05475199967622757 -0.9644380211830139 0.3169200122356415 -0.15909700095653534 0.9350129961967468
          0.44176799058914185 -0.30121299624443054 0.8450509905815125 -0.6174929738044739 -0.11788000166416168 0.777692973613739
          -0.2999509871006012 -0.1762869954109192 0.9375249743461609 -0.9947599768638611 0.011646999977529049 0.10157100111246109
          -0.42458799481391907 0.22189000248908997 -0.8777750134468079 -0.7947369813919067 0.09296300262212753 -0.5997920036315918
          0.9360970258712769 -0.2077060043811798 0.2838659882545471 0.4560680091381073 -0.19600799679756165 -0.8680920004844666
          0.951138973236084 -0.2956460118293762 -0.08904600143432617 -0.20123299956321716 -0.08130399882793427 -0.9761630296707153
          -0.36355701088905334 0.16230100393295288 -0.9173250198364258 0.7632200121879578 -0.4861229956150055 0.42565199732780457
          0.08421800285577774 -0.3843660056591034 0.9193310141563416 -0.504036009311676 -0.25224900245666504 0.8260260224342346
          -0.7806079983711243 -0.16592499613761902 0.6025940179824829 -0.9946280121803284 0.030389999970793724 -0.09894999861717224
          -0.026760999113321304 0.3697200119495392 -0.9287580251693726 -0.6271010041236877 0.03699500113725662 -0.7780590057373047
          -0.22833900153636932 0.44739198684692383 -0.8646979928016663 -0.26716798543930054 0.005158000160008669 -0.9636359810829163
          0.3745670020580292 0.21747499704360962 -0.9013350009918213 0.029052000492811203 0.33933699131011963 -0.9402160048484802
          -0.9883419871330261 0.05364299938082695 -0.1424880027770996 0.48545899987220764 -0.0784199982881546 -0.8707349896430969
          0.8808299899101257 -0.4626860022544861 -0.10030200332403183 0.779682993888855 -0.15140299499034882 -0.6075950264930725
          0.5948650240898132 0.15460500121116638 -0.7888169884681702 0.08549299836158752 -0.6809359788894653 0.7273359894752502
          0.6718130111694336 -0.7184569835662842 0.18024000525474548 -0.5779610276222229 -0.34881600737571716 0.7377600073814392
          -0.8067589998245239 -0.3269279897212982 0.49219799041748047 -0.6697589755058289 -0.42681699991226196 0.6076599955558777
          -0.8515009880065918 0.08465000241994858 0.5174750089645386 -0.45938101410865784 -0.22026200592517853 0.8604959845542908
          -0.5226709842681885 0.08377999812364578 0.8484079837799072 0.4921930134296417 0.3212200105190277 -0.809050977230072
          -0.4310309886932373 0.14767800271511078 -0.8901699781417847 -0.8394680023193359 0.1733739972114563 -0.5150089859962463
          0.728754997253418 0.5749650001525879 -0.37193000316619873 0.9649919867515564 0.18979200720787048 -0.18102499842643738
          0.4593859910964966 0.03995700180530548 -0.8873379826545715 0.6013860106468201 0.45361199975013733 -0.6577020287513733
          -0.8787019848823547 0.40676701068878174 0.24984799325466156 -0.7520080208778381 0.5967980027198792 -0.27984899282455444
          0.7509779930114746 -0.6473950147628784 -0.1300469934940338 0.7783200144767761 -0.4250760078430176 -0.46209201216697693
          0.5406110286712646 0.17584800720214844 -0.8226889967918396 -0.08223199844360352 -0.5054500102996826 0.8589280247688293
          0.13704699277877808 -0.5823649764060974 0.8012920022010803 0.1940010040998459 -0.7559069991111755 0.6252750158309937
          0.6905230283737183 0.48430299758911133 0.5372419953346252 0.8591219782829285 0.4993639886379242 -0.11200399696826935
          0.7219560146331787 -0.302172988653183 0.6224709749221802 0.666746973991394 0.38006699085235596 -0.641090989112854
          -0.5853250026702881 -0.29449599981307983 0.755424976348877 -0.6967560052871704 0.04728800058364868 0.7157480120658875
          -0.45816299319267273 -0.12370599806308746 0.8802180290222168 -0.6342899799346924 0.4589320123195648 0.6221399903297424
          -0.0021730000153183937 -0.07888200134038925 0.9968820214271545 0.005388000048696995 0.13181300461292267 0.9912599921226501
          -0.3593890070915222 0.5731440186500549 0.7364410161972046 -0.25971001386642456 0.6292819976806641 -0.7324990034103394
          0.9196450114250183 0.392412006855011 -0.0163199994713068 0.7366809844970703 0.6720569729804993 0.07509499788284302
          0.36198100447654724 0.8508890271186829 -0.38073399662971497 0.4126810133457184 0.8531290292739868 -0.3191620111465454
          0.9391880035400391 -0.2845189869403839 -0.19228500127792358 0.9319869875907898 0.10412900149822235 0.347214013338089
          0.4221459925174713 -0.02383900061249733 -0.9062139987945557 0.5090590119361877 0.5836740136146545 -0.6326010227203369
          -0.5320460200309753 0.8191069960594177 0.21445299685001373 -0.0946739986538887 0.9714080095291138 -0.2177239954471588
          0.521793007850647 0.3569819927215576 0.7747880220413208 0.48621198534965515 0.2680230140686035 0.8317220211029053
          0.4401940107345581 0.6340090036392212 0.6358159780502319 0.4060249924659729 0.882686972618103 0.2366590052843094
          0.33982300758361816 0.8651930093765259 0.36872899532318115 0.02739199995994568 0.19699199497699738 0.9800220131874084
          -0.503154993057251 0.3040289878845215 0.8089510202407837 0.34333398938179016 0.6335870027542114 0.6933180093765259
          0.2590950131416321 0.8211730122566223 0.5084729790687561 0.013434000313282013 0.4175339937210083 0.9085620045661926
          0.6392620205879211 0.12081900238990784 0.7594389915466309 0.6066949963569641 0.28689301013946533 0.7413600087165833
          0.02694999985396862 0.6099039912223816 0.7920169830322266 -0.09642399847507477 0.9290480017662048 0.35717299580574036
          0.5057200193405151 0.17025500535964966 -0.8457310199737549 0.8140299916267395 0.34280699491500854 0.46887001395225525
          0.548350989818573 0.8362259864807129 0.006080999970436096 0.7323369979858398 0.4230850040912628 0.5335559844970703
          0.5769640207290649 0.6043409705162048 0.5494400262832642 0.9078530073165894 -0.20396600663661957 0.3663350045681
          0.6964529752731323 -0.7062140107154846 -0.1273369938135147 0.41076698899269104 0.8824229836463928 0.22934600710868835
          0.5518640279769897 0.8246729969978333 -0.1239359974861145 0.41543200612068176 0.7853019833564758 -0.45903900265693665
          0.7698720097541809 0.5814369916915894 0.26311400532722473 0.5613279938697815 0.6852700114250183 0.4640209972858429
          0.5908970236778259 0.4797149896621704 0.6486250162124634 0.8711540102958679 0.15700499713420868 0.4652310013771057
          0.7954990267753601 -0.5095469951629639 0.3279370069503784 0.815093994140625 -0.03956399857997894 -0.5779759883880615
          0.6708869934082031 0.494935005903244 0.5522230267524719 0.992688000202179 -0.10197599977254868 -0.06457900255918503
          <InformationKey name="L2_NORM_RANGE" location="vtkDataArray" length="2">
            <Value index="0">
              0.99999934082
            </Value>
            <Value index="1">
              1.0000006925
            </Value>
          </InformationKey>
        </DataArray>
      </PointData>
      <CellData>
      </CellData>
      <Points>
        <DataArray type="Float32" Name="Points" NumberOfComponents="3" format="ascii" RangeMin="0.012435930170827504" RangeMax="0.24726018133359276">
          -0.01960200071334839 -0.23895999789237976 -0.03021099977195263 -0.020597999915480614 -0.23662300407886505 -0.031491998583078384
          -0.020795999094843864 -0.2387859970331192 -0.030618999153375626 -0.01500099990516901 -0.23722200095653534 -0.02915100008249283
          -0.01954999938607216 -0.24030399322509766 -0.02836799994111061 -0.014826999977231026 -0.2394469976425171 -0.02685300074517727
          -0.01659199967980385 -0.2341729998588562 -0.030639000236988068 -0.02007400058209896 -0.234607994556427 -0.03125400096178055
          -0.022461000829935074 -0.2372879981994629 -0.031144000589847565 -0.0229250006377697 -0.2392279952764511 -0.029231000691652298
          -0.013505999930202961 -0.23477399349212646 -0.028364000841975212 -0.012866999953985214 -0.23764599859714508 -0.02680099941790104
          -0.023959999904036522 -0.24026699364185333 -0.02600100077688694 -0.01809299923479557 -0.2412479966878891 -0.02314000017940998
          -0.014127000235021114 -0.23937399685382843 -0.023569999262690544 -0.01634800061583519 -0.22936800122261047 -0.026165999472141266
          -0.018682999536395073 -0.2288919985294342 -0.028238000348210335 -0.022285999730229378 -0.22107499837875366 -0.02528800070285797
          -0.019655000418424606 -0.2230139970779419 -0.025690000504255295 -0.024438999593257904 -0.21826699376106262 -0.023754000663757324
          -0.028751999139785767 -0.23130500316619873 -0.02122100070118904 -0.024535000324249268 -0.239315003156662 -0.02709200046956539
          -0.014434999786317348 -0.23294000327587128 -0.026270000264048576 -0.012707999907433987 -0.2353059947490692 -0.027117999270558357
          -0.01435100007802248 -0.23847299814224243 -0.021052999421954155 -0.01232299953699112 -0.23594799637794495 -0.025752000510692596
          -0.024932999163866043 -0.24071000516414642 -0.02489900030195713 -0.022665999829769135 -0.24168699979782104 -0.022192999720573425
          -0.016326000913977623 -0.2405959963798523 -0.021019000560045242 -0.018459999933838844 -0.24048300087451935 -0.018616000190377235
          -0.02184000052511692 -0.24043400585651398 -0.018637999892234802 -0.015434999950230122 -0.2392520010471344 -0.01992099918425083
          -0.01954299956560135 -0.2177180051803589 -0.02339399978518486 -0.015420000068843365 -0.2304230034351349 -0.02410699985921383
          -0.021124999970197678 -0.2078309953212738 -0.021445000544190407 -0.024981999769806862 -0.20513199269771576 -0.021004000678658485
          -0.02065099962055683 -0.21479399502277374 -0.023242000490427017 -0.028787000104784966 -0.20095199346542358 -0.017312999814748764
          -0.029738999903202057 -0.23792099952697754 -0.02179899998009205 -0.02653999999165535 -0.24042899906635284 -0.023771999403834343
          -0.028133999556303024 -0.23882800340652466 -0.019600000232458115 -0.027224000543355942 -0.22315800189971924 -0.0168869998306036
          -0.025774000212550163 -0.2398339956998825 -0.024886999279260635 -0.01432500034570694 -0.23416900634765625 -0.023413000628352165
          -0.01471100002527237 -0.23478800058364868 -0.02185799926519394 -0.027108000591397285 -0.2446179986000061 -0.021918000653386116
          -0.023747999221086502 -0.24226200580596924 -0.022190000861883163 -0.02309500053524971 -0.23141199350357056 -0.015459000132977962
          -0.02676899917423725 -0.24330799281597137 -0.020364999771118164 -0.024744000285863876 -0.24285200238227844 -0.02165899984538555
          -0.02122800052165985 -0.2291949987411499 -0.0164560005068779 -0.019493000581860542 -0.21448299288749695 -0.021724000573158264
          -0.018964000046253204 -0.21645599603652954 -0.017596999183297157 -0.019068999215960503 -0.21297499537467957 -0.018276000395417213
          -0.01749500073492527 -0.2273399978876114 -0.020382000133395195 -0.020392000675201416 -0.19295300543308258 -0.017966000363230705
          -0.02601500041782856 -0.17527799308300018 -0.016865000128746033 -0.03045699931681156 -0.18036599457263947 -0.014461000449955463
          -0.029059000313282013 -0.18942999839782715 -0.011869999580085278 -0.029498999938368797 -0.24092599749565125 -0.021762000396847725
          -0.027493000030517578 -0.24477699398994446 -0.02158600091934204 -0.02807299979031086 -0.2445800006389618 -0.02132900059223175
          -0.025839999318122864 -0.20510900020599365 -0.011769999749958515 -0.02304299920797348 -0.2167939990758896 -0.013247000053524971
          -0.020210999995470047 -0.2161320000886917 -0.015706999227404594 -0.021529000252485275 -0.18945200741291046 -0.009696999564766884
          -0.02028300054371357 -0.17532700300216675 -0.016093000769615173 -0.029231999069452286 -0.13488399982452393 -0.01498700026422739
          -0.03182600066065788 -0.15244899690151215 -0.012842999771237373 -0.030633000656962395 -0.1519480049610138 -0.009064000099897385
          -0.02827399969100952 -0.17589899897575378 -0.008899999782443047 -0.02542700059711933 -0.18093900382518768 -0.007885999977588654
          -0.02236800082027912 -0.2090419977903366 -0.011932999826967716 -0.023365000262856483 -0.19731399416923523 -0.00976100005209446
          -0.022123999893665314 -0.1804019957780838 -0.008603000082075596 -0.01957399956882 -0.12641699612140656 -0.016750000417232513
          -0.03376900032162666 -0.10765799880027771 -0.014034000225365162 -0.026048999279737473 -0.16627700626850128 -0.0065460000187158585
          -0.028934000059962273 -0.12617899477481842 -0.005644000135362148 -0.03324799984693527 -0.07240000367164612 -0.008988000452518463
          -0.026889000087976456 -0.1759749948978424 -0.0077320002019405365 -0.026336999610066414 -0.1264359951019287 -0.004772999789565802
          -0.021581999957561493 -0.09245499968528748 -0.01693199947476387 -0.033392999321222305 -0.07225199788808823 -0.015033000148832798
          -0.028977999463677406 -0.09586799889802933 -0.005336000118404627 -0.027031000703573227 -0.06468400359153748 -0.0031210000161081553
          -0.026138000190258026 -0.05552000179886818 -0.0019710001070052385 -0.03152399882674217 -0.04941000044345856 -0.006074000149965286
          -0.03366300091147423 -0.04805399850010872 -0.01283199992030859 -0.025383999571204185 -0.08266499638557434 -0.004606000147759914
          -0.019819000735878944 -0.04942699894309044 -0.01432000007480383 -0.02636599913239479 -0.07338999956846237 -0.017235999926924706
          -0.024396000429987907 -0.03567900136113167 -0.015301000326871872 -0.023686999455094337 -0.060506001114845276 -0.0023360000923275948
          -0.019652999937534332 -0.03387200087308884 0.0020550000481307507 -0.029020000249147415 -0.028620999306440353 -0.0012080000014975667
          -0.020441999658942223 -0.03048500046133995 0.0024880000855773687 -0.03384900093078613 -0.02914699912071228 -0.008477999828755856
          -0.022678999230265617 -0.015031999908387661 -0.012608000077307224 -0.0318400003015995 -0.013942999765276909 -0.007829000242054462
          -0.021402999758720398 -0.06048300117254257 -0.006138999946415424 -0.018782999366521835 -0.03596999868750572 -0.014410999603569508
          -0.01381599996238947 -0.032290998846292496 -0.005963999778032303 -0.021578000858426094 -0.02845199964940548 -0.01657800003886223
          -0.019979000091552734 -0.02011900022625923 -0.0162579994648695 -0.013392000459134579 -0.028891999274492264 -0.003046999918296933
          -0.018185000866651535 -0.02851800061762333 0.003645000047981739 -0.01722699962556362 -0.022115999832749367 0.005778999999165535
          -0.03234900161623955 -0.010487999767065048 -0.0002500000118743628 -0.03258899971842766 -0.013376000337302685 -0.004695000126957893
          -0.01915000006556511 -0.017595000565052032 -0.015859000384807587 -0.03142800182104111 -0.008476000279188156 -0.00762399984523654
          -0.020440999418497086 -0.014538000337779522 -0.013624999672174454 -0.028241999447345734 -0.004526000004261732 -0.009126000106334686
          -0.01896500028669834 -0.005311000160872936 -0.010491999797523022 -0.01954299956560135 -0.009185999631881714 -0.01144300028681755
          -0.03294600173830986 -0.00597199983894825 -0.004769999999552965 -0.017704999074339867 -0.02798300050199032 -0.016939999535679817
          -0.011664999648928642 -0.02699200063943863 -0.00570600014179945 -0.015340999700129032 -0.02510800026357174 -0.012788999825716019
          -0.019107000902295113 -0.02010500058531761 -0.016263000667095184 -0.015123000368475914 -0.02118699997663498 0.007333000190556049
          -0.008430000394582748 -0.020093999803066254 0.0006249999860301614 -0.022818999364972115 -0.006852999795228243 0.006341000087559223
          -0.017539000138640404 -0.014239000156521797 0.007486999966204166 -0.01596600003540516 -0.015150000341236591 0.01193699985742569
          -0.030837999656796455 0.0028520000632852316 0.005241999868303537 -0.025067999958992004 0.00042799999937415123 0.009045000188052654
          -0.027525000274181366 0.004236000124365091 0.007977000437676907 -0.018422000110149384 -0.013411999680101871 -0.013000999577343464
          -0.02653999999165535 0.003071000101044774 -0.010626999661326408 -0.03175099939107895 -0.0014479999663308263 -0.006432000081986189
          -0.014484000392258167 -0.010425000451505184 -0.005489000119268894 -0.01445700041949749 -0.0023590000346302986 0.0022040000185370445
          -0.020519999787211418 0.005925000179558992 -0.011208999902009964 -0.015873000025749207 -0.011001000180840492 -0.01077600009739399
          -0.03153900057077408 0.00698000006377697 0.001610000035725534 -0.031183000653982162 0.007354999892413616 -0.0015490000369027257
          -0.009840999729931355 -0.02371099963784218 -0.006194000132381916 -0.007114999927580357 -0.02140899933874607 -0.007373000029474497
          -0.012733999639749527 -0.02163100056350231 -0.009491000324487686 -0.013942000456154346 -0.015154999680817127 0.012941000051796436
          -0.012795000337064266 -0.016574999317526817 0.011521000415086746 -0.008620000444352627 -0.016937000676989555 0.01118400041013956
          -0.0017170000355690718 -0.014774000272154808 0.004354000091552734 -0.0006900000153109431 -0.012361999601125717 -0.0011650000233203173
          -0.005007999949157238 -0.015836000442504883 0.01090999972075224 -0.002102999947965145 -0.01382800005376339 -0.004726999904960394
          -0.021425999701023102 -0.005869999993592501 0.008969999849796295 -0.018689999356865883 -0.00954699981957674 0.010447000153362751
          -0.015887999907135963 -0.012520000338554382 0.013333000242710114 -0.028156999498605728 0.007003000006079674 0.006320000160485506
          -0.021839000284671783 -0.0017989999614655972 0.009650999680161476 -0.021893000230193138 0.004189999774098396 0.010036000050604343
          -0.024070000275969505 0.009057000279426575 0.007747999858111143 -0.01996699906885624 0.010835999622941017 -0.009841999970376492
          -0.013644999824464321 -0.005001000128686428 0.002483000047504902 -0.011884000152349472 -0.007586000021547079 0.0025839998852461576
          -0.011257999576628208 -0.010490999557077885 -0.002196999965235591 -0.01230200007557869 -0.011907000094652176 -0.005266999825835228
          -0.014667999930679798 0.0029150000773370266 0.0012890000361949205 -0.015426999889314175 -0.00013800000306218863 0.004546999931335449
          -0.018332000821828842 0.00973500031977892 -0.01054999977350235 -0.013302999548614025 -0.012242999859154224 -0.009031999856233597
          -0.028565000742673874 0.009398000314831734 0.002816000021994114 -0.015967000275850296 0.013787000440061092 -0.0055610002018511295
          -0.013026000000536442 -0.012884000316262245 0.013620000332593918 -0.0059460001066327095 -0.01575700007379055 0.011621000245213509
          -0.007488999981433153 -0.012217000126838684 0.004064000211656094 -0.006763000041246414 -0.010966000147163868 0.001673000049777329
          -0.008438999764621258 -0.013770000077784061 0.005841999780386686 -0.02047000080347061 -0.004910999909043312 0.009438999928534031
          -0.016976000741124153 -0.010010999627411366 0.0123070003464818 -0.016777999699115753 -0.007853000424802303 0.010240999981760979
          -0.015961000695824623 -0.009092999622225761 0.012249000370502472 -0.014779999852180481 -0.010606000199913979 0.01332200039178133
          -0.018195999786257744 -0.0028959999326616526 0.008100000210106373 -0.014468000270426273 0.011354999616742134 0.006510999985039234
          -0.017573999240994453 0.012014999985694885 0.006907000206410885 -0.018605999648571014 0.01346299983561039 0.004778999835252762
          -0.015603000298142433 0.011397000402212143 -0.009114000014960766 -0.01381599996238947 -0.005530000198632479 0.0038960000965744257
          -0.00952600035816431 -0.009619999676942825 0.0021959999576210976 -0.016502000391483307 -0.006231000181287527 0.00803999975323677
          -0.01158900000154972 -0.009398999623954296 0.004906999878585339 -0.014995000325143337 0.004075000062584877 0.004556000232696533
          -0.011750999838113785 0.009658999741077423 -0.000699999975040555 -0.013313000090420246 0.01338099967688322 0.0024840000551193953
          -0.011656000278890133 0.013136999681591988 -0.00266400002874434 -0.013446000404655933 0.013086000457406044 -0.0061690001748502254
          -0.015386000275611877 -0.009728999808430672 0.009700999595224857 -0.01144300028681755 -0.01295899972319603 0.007524999789893627
          -0.01733900047838688 -0.006151000037789345 0.00915099959820509 -0.010490999557077885 0.011122000403702259 0.002263000002130866
          -0.013577999547123909 0.007945000194013119 0.0038819999899715185 -0.011629000306129456 0.011343000456690788 -0.005950000137090683
          -0.013544999994337559 -0.010499999858438969 0.007060999982059002 -0.009762999601662159 0.010873000137507915 -0.0015800000401213765
          <InformationKey name="L2_NORM_RANGE" location="vtkDataArray" length="2">
            <Value index="0">
              0.012435930171
            </Value>
            <Value index="1">
              0.24726018133
            </Value>
          </InformationKey>
        </DataArray>
      </Points>
      <Verts>
        <DataArray type="Int64" Name="connectivity" format="ascii" RangeMin="1e+299" RangeMax="-1e+299">
        </DataArray>
        <DataArray type="Int64" Name="offsets" format="ascii" RangeMin="1e+299" RangeMax="-1e+299">
        </DataArray>
      </Verts>
      <Lines>
        <DataArray type="Int64" Name="connectivity" format="ascii" RangeMin="1e+299" RangeMax="-1e+299">
        </DataArray>
        <DataArray type="Int64" Name="offsets" format="ascii" RangeMin="1e+299" RangeMax="-1e+299">
        </DataArray>
      </Lines>
      <Strips>
        <DataArray type="Int64" Name="connectivity" format="ascii" RangeMin="1e+299" RangeMax="-1e+299">
        </DataArray>
        <DataArray type="Int64" Name="offsets" format="ascii" RangeMin="1e+299" RangeMax="-1e+299">
        </DataArray>
      </Strips>
      <Polys>
        <DataArray type="Int32" Name="connectivity" format="ascii" RangeMin="0" RangeMax="197">
          2 1 0 3 0 1
          4 2 0 5 0 3
          5 4 0 6 3 1
          6 1 7 1 8 7
          2 8 1 2 4 9
          8 2 9 3 6 10
          3 10 11 5 3 11
          9 4 12 5 13 4
          4 13 12 5 11 14
          14 13 5 16 15 6
          10 6 15 6 7 16
          7 8 17 18 7 17
          7 18 16 17 8 19
          20 19 8 20 8 21
          9 21 8 12 21 9
          22 10 15 22 23 10
          23 11 10 11 24 14
          11 25 24 23 25 11
          26 21 12 27 26 12
          13 27 12 28 13 14
          30 13 29 28 29 13
          13 30 27 14 31 28
          14 24 31 15 18 32
          18 15 16 33 22 15
          33 15 32 17 35 34
          18 17 36 17 34 36
          35 17 19 36 32 18
          19 37 35 20 37 19
          39 38 20 40 20 38
          41 37 20 20 21 42
          20 42 39 20 40 41
          42 21 26 43 23 22
          22 33 43 23 43 25
          31 24 44 25 44 24
          43 44 25 26 46 45
          42 26 45 46 26 27
          27 30 46 29 28 31
          29 47 30 47 29 31
          49 30 48 47 48 30
          46 30 49 47 31 50
          44 50 31 51 32 36
          32 52 33 32 53 52
          32 51 53 54 43 33
          52 54 33 34 51 36
          34 55 51 56 55 34
          34 35 56 35 57 56
          57 35 37 37 58 57
          58 37 41 38 39 59